#     Step Nr.          Time[fs]        Kin.[a.u.]          Temp[K]            Pot.[a.u.]        Cons Qty[a.u.]        UsedTime[s]
         0            0.000000        43.824813525       298.310323457      -254.256934038      -210.431648657         0.000000000
         1            1.000000        43.809589151       298.206692945      -254.258186086      -210.445243864       232.144621812
         2            2.000000        43.751868847       297.813797657      -254.182353365      -210.424247567        71.368851644
         3            3.000000        43.821048897       298.284698080      -254.266686269      -210.436518407        67.928500824
         4            4.000000        43.908740701       298.881605819      -254.364938480      -210.444182738        70.460838812
         5            5.000000        43.936444813       299.070184434      -254.375385352      -210.424001083        74.244658235
