#     Step Nr.          Time[fs]        Kin.[a.u.]          Temp[K]            Pot.[a.u.]        Cons Qty[a.u.]        UsedTime[s]
         0            0.000000       422.425160122       298.806277594     -1576.543507506     -1154.117875529         0.000000000
         1            1.000000       422.191988418       298.641341470     -1576.246637114     -1154.045129748       189.032573215
         2            2.000000       422.631625758       298.952322939     -1576.736362565     -1154.085969795        70.790096679
         3            3.000000       423.233166677       299.377828377     -1577.436929186     -1154.175461660        70.861331937
         4            4.000000       423.043065593       299.243358647     -1577.193541460     -1154.112265388        70.990819946
         5            5.000000       422.594093644       298.925774257     -1576.733582665     -1154.091030481        72.011049721
