 *******************************************************************************
 *                            RESTART INFORMATION                              *
 *******************************************************************************
 *                                                                             *
 *    RESTART FILE NAME: NPT-1_5000.restart                                    *
 *                                                                             *
 * RESTARTED QUANTITIES:                                                       *
 *                       CELL                                                  *
 *                       COORDINATES                                           *
 *                       RANDOM NUMBER GENERATOR                               *
 *                       VELOCITIES                                            *
 *                       MD AVERAGES                                           *
 *                       REAL TIME PROPAGATION                                 *
 *                       PINT BEAD POSITIONS                                   *
 *                       PINT BEAD VELOCITIES                                  *
 *                       PINT NOSE THERMOSTAT                                  *
 *                       PINT GLE THERMOSTAT                                   *
 *                       HELIUM BEAD POSITIONS                                 *
 *                       HELIUM PERMUTATION STATE                              *
 *                       HELIUM FORCES ON SOLUTE                               *
 *                       HELIUM RNG STATE                                      *
 *******************************************************************************

 DBCSR| Multiplication driver                                               XSMM
 DBCSR| Multrec recursion limit                                              512
 DBCSR| Multiplication stack size                                           1000
 DBCSR| Maximum elements for images                                    UNLIMITED
 DBCSR| Multiplicative factor virtual images                                   1
 DBCSR| Multiplication size stacks                                             3
 DBCSR| Number of 3D layers                                               SINGLE
 DBCSR| Use MPI memory allocation                                              T
 DBCSR| Use RMA algorithm                                                      F
 DBCSR| Use Communication thread                                               T
 DBCSR| Communication thread load                                             87


  **** **** ******  **  PROGRAM STARTED AT               2019-03-15 18:26:48.067
 ***** ** ***  *** **   PROGRAM STARTED ON                              nid02031
 **    ****   ******    PROGRAM STARTED BY                              fionabio
 ***** **    ** ** **   PROGRAM PROCESS ID                                 27128
  **** **  *******  **  PROGRAM STARTED IN /fs3/d118/d118/fionabio/BioExcel2/cp2
                                           k_benchmarks/QMMM/MM/4_nodes/test-1

 CP2K| version string:                                          CP2K version 6.1
 CP2K| source code revision number:                                    svn:18464
 CP2K| cp2kflags: omp libint fftw3 libxc elpa=201605 elpa_qr parallel mpi3 scala
 CP2K|            pack xsmm libgrid has_no_shared_glibc max_contr=4 statm_resident plumed2
 CP2K| is freely available from                            https://www.cp2k.org/
 CP2K| Program compiled at                          Fri Feb 15 14:30:53 GMT 2019
 CP2K| Program compiled on                                            eslogin007
 CP2K| Program compiled for                                       ARCHER_craypat
 CP2K| Data directory path    /work/d118/d118/fionabio/BioExcel2/cp2k_benchmarks
 CP2K| Input file name                                       fr_qmmm_40steps.inp

 GLOBAL| Force Environment number                                              1
 GLOBAL| Basis set file name                                           BASIS_SET
 GLOBAL| Potential file name                                           POTENTIAL
 GLOBAL| MM Potential file name                                     MM_POTENTIAL
 GLOBAL| Coordinate file name                                      __STD_INPUT__
 GLOBAL| Method name                                                        CP2K
 GLOBAL| Project name                                                       QMMM
 GLOBAL| Preferred FFT library                                             FFTW3
 GLOBAL| Preferred diagonalization lib.                                       SL
 GLOBAL| Run type                                                             MD
 GLOBAL| All-to-all communication in single precision                          F
 GLOBAL| FFTs using library dependent lengths                                  F
 GLOBAL| Global print level                                                  LOW
 GLOBAL| Total number of message passing processes                            96
 GLOBAL| Number of threads for this process                                    1
 GLOBAL| This output is from process                                           0
 GLOBAL| CPU model name :  Intel(R) Xeon(R) CPU E5-2697 v2 @ 2.70GHz

 MEMORY| system memory details [Kb]
 MEMORY|                        rank 0           min           max       average
 MEMORY| MemTotal             66072152      66072152      66072152      66072152
 MEMORY| MemFree              60880756      60880756      60946876      60903569
 MEMORY| Buffers                     0             0             0             0
 MEMORY| Cached                 285772        280224        285772        281879
 MEMORY| Slab                   274780        270588        274780        272277
 MEMORY| SReclaimable             8724          8540          8756          8649
 MEMORY| MemLikelyFree        61175252      61175252      61236396      61194097



                      ************* ******** ***********   
                     ************* **********************  
                     ****     **** ****      ***********   
                     ******** ****  *******     ****       
                     *******  ****   *******   ****        
                     ****     ****       ****  ****        
                     ****     **** **********  ****        
                      ****     **** ********    ****       
                     FRONTIERS IN SIMULATION TECHNOLOGY    
                                                           
                        C.J. Mundy, S. Balasubramanian,    
                     Ken Bagchi, J. Hutter, Ari Seitsonen  
                      IFW Kuo, T. Laino, J. VandeVondele   
                                 Version 1.0               

                                                           


 EWALD| Summation is done by:                                               SPME
 EWALD| Alpha parameter [       ANGSTROM^-1]                              0.4000
 EWALD| Real Space Cutoff [          ANGSTROM]                            8.4348
 EWALD| G-space max. Miller index                         80        80        80
 EWALD| Spline interpolation order                                             6

 FORCEFIELD| WARNING: A non Critical ForceField parameter is missing! CP2K GOES!
 FORCEFIELD| Non critical parameters are:Urey-Bradley,Torsions,Impropers, Opbends and 1-4
 FORCEFIELD| All missing parameters will not contribute to the potential energy!
 FORCEFIELD| Activate the print key FF_INFO to have a list of missing parameters

 CHARGE_INFO| Total Charge of the Classical System:                     0.000000

 SPLINE_INFO| Generating 56953 splines for NONBONDED14 interactions 
              Due to 337 different atomic kinds
  ...5695  ...11390  ...17085  ...22780  ...28475  ...34170  ...39865  ...45560  ...51255  ...56950
 SPLINE_INFO| Number of unique splines computed:            137
 SPLINE_INFO| Done

 SPLINE_INFO| Generating 56953 splines for NONBONDED interactions 
              Due to 337 different atomic kinds
  ...5695  ...11390  ...17085  ...22780  ...28475  ...34170  ...39865  ...45560  ...51255  ...56950
 SPLINE_INFO| Number of unique splines computed:            137
 SPLINE_INFO| Done

 *******************************************************************************
 *******************************************************************************
 **                                                                           **
 **     #####                         ##              ##                      **
 **    ##   ##            ##          ##              ##                      **
 **   ##     ##                       ##            ######                    **
 **   ##     ##  ##   ##  ##   #####  ##  ##   ####   ##    #####    #####    **
 **   ##     ##  ##   ##  ##  ##      ## ##   ##      ##   ##   ##  ##   ##   **
 **   ##  ## ##  ##   ##  ##  ##      ####     ###    ##   ######   ######    **
 **    ##  ###   ##   ##  ##  ##      ## ##      ##   ##   ##       ##        **
 **     #######   #####   ##   #####  ##  ##  ####    ##    #####   ##        **
 **           ##                                                    ##        **
 **                                                                           **
 **                                                ... make the atoms dance   **
 **                                                                           **
 **            Copyright (C) by CP2K developers group (2000 - 2018)           **
 **                                                                           **
 *******************************************************************************


 TOTAL NUMBERS AND MAXIMUM NUMBERS

  Total number of            - Atomic kinds:                                   5
                             - Atoms:                                         22
                             - Shell sets:                                    44
                             - Shells:                                        94
                             - Primitive Cartesian functions:                110
                             - Cartesian basis functions:                    236
                             - Spherical basis functions:                    222

  Maximum angular momentum of- Orbital basis functions:                        2
                             - Local part of the GTH pseudopotential:          2
                             - Non-local part of the GTH pseudopotential:      0


 SCF PARAMETERS         Density guess:                                    ATOMIC
                        --------------------------------------------------------
                        max_scf:                                              30
                        max_scf_history:                                       0
                        max_diis:                                              4
                        --------------------------------------------------------
                        eps_scf:                                        1.00E-06
                        eps_scf_history:                                0.00E+00
                        eps_diis:                                       1.00E-01
                        eps_eigval:                                     1.00E-05
                        --------------------------------------------------------
                        level_shift [a.u.]:                                 0.00
                        --------------------------------------------------------
                        Outer loop SCF in use 
                        No variables optimised in outer loop
                        eps_scf                                         1.00E-06
                        max_scf                                               10
                        No outer loop optimization
                        step_size                                       5.00E-01

 *******************************************************************************
 *******************************************************************************
 **                                                                           **
 **             #######  ##     ## ##     ## ##     ##                        **
 **            ##     ## ###   ### ###   ### ###   ###                        **
 **            ##     ## #### #### #### #### #### ####                        **
 **            ##     ## ## ### ## ## ### ## ## ### ##                        **
 **            ##  ## ## ##     ## ##     ## ##     ##                        **
 **            ##    ##  ##     ## ##     ## ##     ##  T.Laino and F.Mohamed **
 **             ##### ## ##     ## ##     ## ##     ##  2005 - 2015           **
 **                                                                           **
 **                                                     Calculation Started.. **
 *******************************************************************************
 *******************************************************************************

 MD| Molecular Dynamics Protocol 
 MD| Ensemble Type                                                           NVT
 MD| Number of Time Steps                                                     40
 MD| Time Step [fs]                                                         1.00
 MD| Temperature [K]                                                      298.00
 MD| Temperature tolerance [K]                                              0.00
 MD| Print MD information every                                        1 step(s)
 MD| File type     Print frequency[steps]                             File names
 MD| Coordinates          100                                     QMMM-pos-1.xyz
 MD| Velocities             1                                     QMMM-vel-1.xyz
 MD| Energies               1                                        QMMM-1.ener
 MD| Dump                1000                                     QMMM-1.restart

 ROT| Rotational Analysis Info 
 ROT| Principal axes and moments of inertia in atomic units:
 ROT|                                1                 2                 3
 ROT| EIGENVALUES            0.783752064E+12   0.946041841E+12   0.987014226E+12
 ROT|      X                    -0.999672383      -0.015945217       0.020021921
 ROT|      Y                    -0.017525004       0.996529037      -0.081380298
 ROT|      Z                     0.018654799       0.081704521       0.996481997
 ROT| Numer of Rotovibrational vectors:     6

 Calculation of degrees of freedom
                                                      Number of atoms:     30928
                                 Number of Intramolecular constraints:         0
                                 Number of Intermolecular constraints:         0
                                  Invariants(translation + rotations):         3
                                                   Degrees of freedom:     92781


 Restraints Information
                                  Number of Intramolecular restraints:         0
                                  Number of Intermolecular restraints:         0

 THERMOSTAT| Thermostat Info for PARTICLES
 THERMOSTAT| Type of thermostat                               Nose-Hoover-Chains
 THERMOSTAT| Nose-Hoover-Chain length                                          3
 THERMOSTAT| Nose-Hoover-Chain time constant [  fs]                       100.00
 THERMOSTAT| Order of Yoshida integrator                                       3
 THERMOSTAT| Number of multiple time steps                                     2
 THERMOSTAT| Initial Potential Energy                                   0.000000
 THERMOSTAT| Initial Kinetic Energy                                     0.000472
 THERMOSTAT| End of Thermostat Info for PARTICLES

 ************************** Velocities initialization **************************
 Initial Temperature                                                    299.40 K
 COM velocity:            0.000000000000      0.000000000000     -0.000000000000
 *******************************************************************************


  Translating the system in order to center the QM fragment in the QM box.

 Number of electrons:                                                         70
 Number of occupied orbitals:                                                 35
 Number of molecular orbitals:                                                35

 Number of orbital functions:                                                222
 Number of independent orbital functions:                                    222

 Extrapolation method: initial_guess


 SCF WAVEFUNCTION OPTIMIZATION

  ----------------------------------- OT ---------------------------------------
  Minimizer      : DIIS                : direct inversion
                                         in the iterative subspace
                                         using   7 DIIS vectors
                                         safer DIIS on
  Preconditioner : FULL_SINGLE_INVERSE : inversion of 
                                         H + eS - 2*(Sc)(c^T*H*c+const)(Sc)^T
  Precond_solver : DEFAULT
  stepsize       :    0.08000000                  energy_gap     :    0.08000000
  eps_taylor     :   0.10000E-15                  max_taylor     :             4
  ----------------------------------- OT ---------------------------------------

  Step     Update method      Time    Convergence         Total energy    Change
  ------------------------------------------------------------------------------
     1 OT DIIS     0.80E-01    2.2     0.09329988      -108.0952724260 -1.08E+02
     2 OT DIIS     0.80E-01    2.7     0.06536893      -111.6363047226 -3.54E+00
     3 OT DIIS     0.80E-01    2.7     0.04290678      -113.1681812582 -1.53E+00
     4 OT DIIS     0.80E-01    2.8     0.02833519      -114.3133057583 -1.15E+00
     5 OT DIIS     0.80E-01    2.7     0.01818393      -114.6001423276 -2.87E-01
     6 OT DIIS     0.80E-01    2.7     0.01230835      -114.8486082528 -2.48E-01
     7 OT DIIS     0.80E-01    2.7     0.00787224      -114.9377900594 -8.92E-02
     8 OT DIIS     0.80E-01    2.7     0.00523739      -114.9888305499 -5.10E-02
     9 OT DIIS     0.80E-01    2.7     0.00372689      -115.0169117425 -2.81E-02
    10 OT DIIS     0.80E-01    2.7     0.00272520      -115.0331860289 -1.63E-02
    11 OT DIIS     0.80E-01    2.7     0.00194499      -115.0415206875 -8.33E-03
    12 OT DIIS     0.80E-01    2.7     0.00142275      -115.0465877878 -5.07E-03
    13 OT DIIS     0.80E-01    2.7     0.00114142      -115.0496410178 -3.05E-03
    14 OT DIIS     0.80E-01    2.9     0.00092933      -115.0513788756 -1.74E-03
    15 OT DIIS     0.80E-01    2.7     0.00076838      -115.0528256356 -1.45E-03
    16 OT DIIS     0.80E-01    2.7     0.00066158      -115.0538076169 -9.82E-04
    17 OT DIIS     0.80E-01    2.7     0.00057756      -115.0545611999 -7.54E-04
    18 OT DIIS     0.80E-01    2.7     0.00051171      -115.0552317459 -6.71E-04
    19 OT DIIS     0.80E-01    2.7     0.00045778      -115.0557975362 -5.66E-04
    20 OT DIIS     0.80E-01    2.7     0.00039297      -115.0563685146 -5.71E-04
    21 OT DIIS     0.80E-01    2.7     0.00034178      -115.0568053998 -4.37E-04
    22 OT DIIS     0.80E-01    2.7     0.00029181      -115.0571573505 -3.52E-04
    23 OT DIIS     0.80E-01    2.6     0.00024127      -115.0574118832 -2.55E-04
    24 OT DIIS     0.80E-01    2.7     0.00019963      -115.0575813767 -1.69E-04
    25 OT DIIS     0.80E-01    2.7     0.00016168      -115.0576849280 -1.04E-04
    26 OT DIIS     0.80E-01    2.7     0.00013086      -115.0577525242 -6.76E-05
    27 OT DIIS     0.80E-01    2.7     0.00010971      -115.0577861416 -3.36E-05
    28 OT DIIS     0.80E-01    2.7     0.00009005      -115.0578090011 -2.29E-05
    29 OT DIIS     0.80E-01    2.6     0.00007659      -115.0578235405 -1.45E-05
    30 OT DIIS     0.80E-01    2.8     0.00006594      -115.0578328086 -9.27E-06

  Leaving inner SCF loop after reaching    30 steps.


  Electronic density on regular grids:        -69.9999999948        0.0000000052
  Core density on regular grids:               69.9999999957       -0.0000000043
  Total charge density on r-space grids:        0.0000000009
  Total charge density g-space grids:           0.0000000009

  Overlap energy of the core charge distribution:               0.00000607847608
  Self energy of the core charge distribution:               -278.09582761455005
  Core Hamiltonian energy:                                     84.62163968032201
  Hartree energy:                                             112.36092013942557
  Exchange-correlation energy:                                -31.95866797917184
  QM/MM Electrostatic energy:                                  -1.98590311306289

  Total energy:                                              -115.05783280856112

  outer SCF iter =    1 RMS gradient =   0.66E-04 energy =       -115.0578328086

  ----------------------------------- OT ---------------------------------------
  Minimizer      : DIIS                : direct inversion
                                         in the iterative subspace
                                         using   7 DIIS vectors
                                         safer DIIS on
  Preconditioner : FULL_SINGLE_INVERSE : inversion of 
                                         H + eS - 2*(Sc)(c^T*H*c+const)(Sc)^T
  Precond_solver : DEFAULT
  stepsize       :    0.08000000                  energy_gap     :    0.08000000
  eps_taylor     :   0.10000E-15                  max_taylor     :             4
  ----------------------------------- OT ---------------------------------------

  Step     Update method      Time    Convergence         Total energy    Change
  ------------------------------------------------------------------------------
     1 OT DIIS     0.80E-01    5.5     0.00016332      -115.0578389700 -6.16E-06
     2 OT DIIS     0.80E-01    2.6     0.00011102      -115.0578519312 -1.30E-05
     3 OT DIIS     0.80E-01    2.7     0.00012615      -115.0578578799 -5.95E-06
     4 OT DIIS     0.80E-01    2.6     0.00006132      -115.0578619520 -4.07E-06
     5 OT DIIS     0.80E-01    2.6     0.00003690      -115.0578631311 -1.18E-06
     6 OT DIIS     0.80E-01    2.6     0.00002163      -115.0578635545 -4.23E-07
     7 OT DIIS     0.80E-01    2.7     0.00001272      -115.0578637031 -1.49E-07
     8 OT DIIS     0.80E-01    2.8     0.00000643      -115.0578637419 -3.88E-08
     9 OT DIIS     0.80E-01    2.7     0.00000390      -115.0578637509 -9.01E-09
    10 OT DIIS     0.80E-01    2.7     0.00000199      -115.0578637542 -3.31E-09
    11 OT DIIS     0.80E-01    2.7     0.00000136      -115.0578637557 -1.50E-09
    12 OT DIIS     0.80E-01    2.7     0.00000139      -115.0578637561 -3.35E-10
    13 OT DIIS     0.80E-01    2.7     0.00000073      -115.0578637563 -2.24E-10

  *** SCF run converged in    13 steps ***


  Electronic density on regular grids:        -69.9999999948        0.0000000052
  Core density on regular grids:               69.9999999957       -0.0000000043
  Total charge density on r-space grids:        0.0000000009
  Total charge density g-space grids:           0.0000000009

  Overlap energy of the core charge distribution:               0.00000607847608
  Self energy of the core charge distribution:               -278.09582761455005
  Core Hamiltonian energy:                                     84.62090578889581
  Hartree energy:                                             112.36149196463579
  Exchange-correlation energy:                                -31.95841753534052
  QM/MM Electrostatic energy:                                  -1.98602243840283

  Total energy:                                              -115.05786375628571

  outer SCF iter =    2 RMS gradient =   0.73E-06 energy =       -115.0578637563
  outer SCF loop converged in   2 iterations or   43 steps


 ENERGY| Total FORCE_EVAL ( QMMM ) energy (a.u.):           -253.053219646342001


 MD_ENERGIES| Initialization proceeding


 ******************************** GO CP2K GO! **********************************
 INITIAL POTENTIAL ENERGY[hartree]     =                     -0.253053219646E+03
 TOTAL INITIAL KINETIC ENERGY[hartree] =                      0.439844103254E+02
 QM INITIAL KINETIC ENERGY[hartree]    =                      0.350675982115E-01
 TOTAL INITIAL TEMPERATURE[K]          =                                 299.397
 QM INITIAL TEMPERATURE[K]             =                                 335.559
 INITIAL VOLUME[bohr^3]                =                      0.218187828648E+07
 INITIAL CELL LNTHS[bohr]   =      0.1449600E+03   0.1268275E+03   0.1186776E+03
 INITIAL CELL ANGLS[deg]    =      0.9000000E+02   0.9000000E+02   0.9000000E+02
 ******************************** GO CP2K GO! **********************************

  Translating the system in order to center the QM fragment in the QM box.

 Number of electrons:                                                         70
 Number of occupied orbitals:                                                 35
 Number of molecular orbitals:                                                35

 Number of orbital functions:                                                222
 Number of independent orbital functions:                                    222

 Extrapolation method: ASPC


 SCF WAVEFUNCTION OPTIMIZATION

  ----------------------------------- OT ---------------------------------------
  Minimizer      : DIIS                : direct inversion
                                         in the iterative subspace
                                         using   7 DIIS vectors
                                         safer DIIS on
  Preconditioner : FULL_SINGLE_INVERSE : inversion of 
                                         H + eS - 2*(Sc)(c^T*H*c+const)(Sc)^T
  Precond_solver : DEFAULT
  stepsize       :    0.08000000                  energy_gap     :    0.08000000
  eps_taylor     :   0.10000E-15                  max_taylor     :             4
  ----------------------------------- OT ---------------------------------------

  Step     Update method      Time    Convergence         Total energy    Change
  ------------------------------------------------------------------------------
     1 OT DIIS     0.80E-01    2.1     0.00133217      -115.1405570366 -1.15E+02
     2 OT DIIS     0.80E-01    2.7     0.00075553      -115.1412651185 -7.08E-04
     3 OT DIIS     0.80E-01    2.6     0.00066324      -115.1414475104 -1.82E-04
     4 OT DIIS     0.80E-01    2.6     0.00055435      -115.1415409998 -9.35E-05
     5 OT DIIS     0.80E-01    2.6     0.00021491      -115.1415887318 -4.77E-05
     6 OT DIIS     0.80E-01    2.6     0.00009071      -115.1415993702 -1.06E-05
     7 OT DIIS     0.80E-01    2.6     0.00005020      -115.1416021806 -2.81E-06
     8 OT DIIS     0.80E-01    2.6     0.00003357      -115.1416027560 -5.75E-07
     9 OT DIIS     0.80E-01    2.7     0.00002039      -115.1416029464 -1.90E-07
    10 OT DIIS     0.80E-01    2.6     0.00000889      -115.1416030178 -7.14E-08
    11 OT DIIS     0.80E-01    2.6     0.00000519      -115.1416030388 -2.10E-08
    12 OT DIIS     0.80E-01    2.7     0.00000465      -115.1416030447 -5.94E-09
    13 OT DIIS     0.80E-01    2.7     0.00000338      -115.1416030474 -2.64E-09
    14 OT DIIS     0.80E-01    2.7     0.00000152      -115.1416030491 -1.71E-09
    15 OT DIIS     0.80E-01    2.6     0.00000084      -115.1416030496 -5.52E-10

  *** SCF run converged in    15 steps ***


  Electronic density on regular grids:        -69.9999999990        0.0000000010
  Core density on regular grids:               69.9999999957       -0.0000000043
  Total charge density on r-space grids:       -0.0000000033
  Total charge density g-space grids:          -0.0000000033

  Overlap energy of the core charge distribution:               0.00000658232499
  Self energy of the core charge distribution:               -278.09582761455005
  Core Hamiltonian energy:                                     84.63577155751275
  Hartree energy:                                             112.35370339631551
  Exchange-correlation energy:                                -31.96443455399029
  QM/MM Electrostatic energy:                                  -2.07082241723575

  Total energy:                                              -115.14160304962283

  outer SCF iter =    1 RMS gradient =   0.84E-06 energy =       -115.1416030496
  outer SCF loop converged in   1 iterations or   15 steps


 ENERGY| Total FORCE_EVAL ( QMMM ) energy (a.u.):           -252.908036765789348


 *******************************************************************************
 ENSEMBLE TYPE                =                                              NVT
 STEP NUMBER                  =                                                1
 TIME [fs]                    =                                         1.000000
 CONSERVED QUANTITY [hartree] =                              -0.209034371586E+03

                                              INSTANTANEOUS             AVERAGES
 CPU TIME [s]                 =                      254.38               254.38
 ENERGY DRIFT PER ATOM [K]    =          0.346791377862E+00   0.000000000000E+00
 POTENTIAL ENERGY[hartree]    =         -0.252908036766E+03  -0.252908036766E+03
 TOTAL KINETIC ENERGY[hartree]=          0.438702913439E+02   0.438702913439E+02
 QM KINETIC ENERGY[hartree]   =          0.345760913909E-01   0.345760913909E-01
 TOTAL TEMPERATURE[K]         =                     298.620              298.620
 QM TEMPERATURE[K]            =                     330.856              330.856
 *******************************************************************************


  Translating the system in order to center the QM fragment in the QM box.

 Number of electrons:                                                         70
 Number of occupied orbitals:                                                 35
 Number of molecular orbitals:                                                35

 Number of orbital functions:                                                222
 Number of independent orbital functions:                                    222

 Extrapolation method: ASPC


 SCF WAVEFUNCTION OPTIMIZATION

  ----------------------------------- OT ---------------------------------------
  Minimizer      : DIIS                : direct inversion
                                         in the iterative subspace
                                         using   7 DIIS vectors
                                         safer DIIS on
  Preconditioner : FULL_SINGLE_INVERSE : inversion of 
                                         H + eS - 2*(Sc)(c^T*H*c+const)(Sc)^T
  Precond_solver : DEFAULT
  stepsize       :    0.08000000                  energy_gap     :    0.08000000
  eps_taylor     :   0.10000E-15                  max_taylor     :             4
  ----------------------------------- OT ---------------------------------------

  Step     Update method      Time    Convergence         Total energy    Change
  ------------------------------------------------------------------------------
     1 OT DIIS     0.80E-01    2.1     0.00090529      -115.1980528563 -1.15E+02
     2 OT DIIS     0.80E-01    2.6     0.00050825      -115.1983563565 -3.04E-04
     3 OT DIIS     0.80E-01    2.6     0.00037309      -115.1984276106 -7.13E-05
     4 OT DIIS     0.80E-01    2.6     0.00017799      -115.1984714015 -4.38E-05
     5 OT DIIS     0.80E-01    2.6     0.00010391      -115.1984821776 -1.08E-05
     6 OT DIIS     0.80E-01    2.6     0.00008267      -115.1984841672 -1.99E-06
     7 OT DIIS     0.80E-01    2.7     0.00003133      -115.1984853776 -1.21E-06
     8 OT DIIS     0.80E-01    2.7     0.00001455      -115.1984856492 -2.72E-07
     9 OT DIIS     0.80E-01    2.7     0.00000835      -115.1984857138 -6.46E-08
    10 OT DIIS     0.80E-01    2.7     0.00000595      -115.1984857286 -1.48E-08
    11 OT DIIS     0.80E-01    2.7     0.00000338      -115.1984857365 -7.94E-09
    12 OT DIIS     0.80E-01    2.7     0.00000220      -115.1984857388 -2.29E-09
    13 OT DIIS     0.80E-01    2.7     0.00000129      -115.1984857399 -1.06E-09
    14 OT DIIS     0.80E-01    2.7     0.00000116      -115.1984857403 -4.02E-10
    15 OT DIIS     0.80E-01    2.8     0.00000072      -115.1984857404 -1.92E-10

  *** SCF run converged in    15 steps ***


  Electronic density on regular grids:        -70.0000000028       -0.0000000028
  Core density on regular grids:               69.9999999957       -0.0000000043
  Total charge density on r-space grids:       -0.0000000071
  Total charge density g-space grids:          -0.0000000071

  Overlap energy of the core charge distribution:               0.00000515643383
  Self energy of the core charge distribution:               -278.09582761455005
  Core Hamiltonian energy:                                     84.57410849716479
  Hartree energy:                                             112.39271086224102
  Exchange-correlation energy:                                -31.94617527396256
  QM/MM Electrostatic energy:                                  -2.12330736777258

  Total energy:                                              -115.19848574044556

  outer SCF iter =    1 RMS gradient =   0.72E-06 energy =       -115.1984857404
  outer SCF loop converged in   1 iterations or   15 steps


 ENERGY| Total FORCE_EVAL ( QMMM ) energy (a.u.):           -253.047482487996490


 *******************************************************************************
 ENSEMBLE TYPE                =                                              NVT
 STEP NUMBER                  =                                                2
 TIME [fs]                    =                                         2.000000
 CONSERVED QUANTITY [hartree] =                              -0.209059276818E+03

                                              INSTANTANEOUS             AVERAGES
 CPU TIME [s]                 =                       88.17               171.27
 ENERGY DRIFT PER ATOM [K]    =          0.925091411858E-01   0.462545705929E-01
 POTENTIAL ENERGY[hartree]    =         -0.253047482488E+03  -0.252977759627E+03
 TOTAL KINETIC ENERGY[hartree]=          0.439819059273E+02   0.439260986356E+02
 QM KINETIC ENERGY[hartree]   =          0.383698960292E-01   0.364729937100E-01
 TOTAL TEMPERATURE[K]         =                     299.380              299.000
 QM TEMPERATURE[K]            =                     367.159              349.007
 *******************************************************************************


  Translating the system in order to center the QM fragment in the QM box.

 Number of electrons:                                                         70
 Number of occupied orbitals:                                                 35
 Number of molecular orbitals:                                                35

 Number of orbital functions:                                                222
 Number of independent orbital functions:                                    222

 Extrapolation method: ASPC


 SCF WAVEFUNCTION OPTIMIZATION

  ----------------------------------- OT ---------------------------------------
  Minimizer      : DIIS                : direct inversion
                                         in the iterative subspace
                                         using   7 DIIS vectors
                                         safer DIIS on
  Preconditioner : FULL_SINGLE_INVERSE : inversion of 
                                         H + eS - 2*(Sc)(c^T*H*c+const)(Sc)^T
  Precond_solver : DEFAULT
  stepsize       :    0.08000000                  energy_gap     :    0.08000000
  eps_taylor     :   0.10000E-15                  max_taylor     :             4
  ----------------------------------- OT ---------------------------------------

  Step     Update method      Time    Convergence         Total energy    Change
  ------------------------------------------------------------------------------
     1 OT DIIS     0.80E-01    2.1     0.00051129      -115.2187605271 -1.15E+02
     2 OT DIIS     0.80E-01    2.6     0.00037936      -115.2188256298 -6.51E-05
     3 OT DIIS     0.80E-01    2.6     0.00017298      -115.2188490107 -2.34E-05
     4 OT DIIS     0.80E-01    2.7     0.00007705      -115.2188586170 -9.61E-06
     5 OT DIIS     0.80E-01    2.6     0.00004888      -115.2188609790 -2.36E-06
     6 OT DIIS     0.80E-01    2.7     0.00003492      -115.2188616420 -6.63E-07
     7 OT DIIS     0.80E-01    2.7     0.00001850      -115.2188618816 -2.40E-07
     8 OT DIIS     0.80E-01    2.6     0.00000848      -115.2188619451 -6.35E-08
     9 OT DIIS     0.80E-01    2.8     0.00000466      -115.2188619635 -1.84E-08
    10 OT DIIS     0.80E-01    2.7     0.00000378      -115.2188619670 -3.45E-09
    11 OT DIIS     0.80E-01    2.6     0.00000172      -115.2188619697 -2.74E-09
    12 OT DIIS     0.80E-01    2.6     0.00000113      -115.2188619703 -6.26E-10
    13 OT DIIS     0.80E-01    2.7     0.00000058      -115.2188619706 -3.27E-10

  *** SCF run converged in    13 steps ***


  Electronic density on regular grids:        -70.0000000050       -0.0000000050
  Core density on regular grids:               69.9999999957       -0.0000000043
  Total charge density on r-space grids:       -0.0000000093
  Total charge density g-space grids:          -0.0000000093

  Overlap energy of the core charge distribution:               0.00000398004733
  Self energy of the core charge distribution:               -278.09582761455005
  Core Hamiltonian energy:                                     84.46655168836108
  Hartree energy:                                             112.46374832381784
  Exchange-correlation energy:                                -31.91286959743888
  QM/MM Electrostatic energy:                                  -2.14046875087816

  Total energy:                                              -115.21886197064084

  outer SCF iter =    1 RMS gradient =   0.58E-06 energy =       -115.2188619706
  outer SCF loop converged in   1 iterations or   13 steps


 ENERGY| Total FORCE_EVAL ( QMMM ) energy (a.u.):           -253.178573116839402


 *******************************************************************************
 ENSEMBLE TYPE                =                                              NVT
 STEP NUMBER                  =                                                3
 TIME [fs]                    =                                         3.000000
 CONSERVED QUANTITY [hartree] =                              -0.209067487501E+03

                                              INSTANTANEOUS             AVERAGES
 CPU TIME [s]                 =                       82.40               141.65
 ENERGY DRIFT PER ATOM [K]    =          0.867813074651E-02   0.337290906441E-01
 POTENTIAL ENERGY[hartree]    =         -0.253178573117E+03  -0.253044697457E+03
 TOTAL KINETIC ENERGY[hartree]=          0.441018112154E+02   0.439846694955E+02
 QM KINETIC ENERGY[hartree]   =          0.417644786320E-01   0.382368220174E-01
 TOTAL TEMPERATURE[K]         =                     300.196              299.398
 QM TEMPERATURE[K]            =                     399.641              365.885
 *******************************************************************************


  Translating the system in order to center the QM fragment in the QM box.

 Number of electrons:                                                         70
 Number of occupied orbitals:                                                 35
 Number of molecular orbitals:                                                35

 Number of orbital functions:                                                222
 Number of independent orbital functions:                                    222

 Extrapolation method: ASPC


 SCF WAVEFUNCTION OPTIMIZATION

  ----------------------------------- OT ---------------------------------------
  Minimizer      : DIIS                : direct inversion
                                         in the iterative subspace
                                         using   7 DIIS vectors
                                         safer DIIS on
  Preconditioner : FULL_SINGLE_INVERSE : inversion of 
                                         H + eS - 2*(Sc)(c^T*H*c+const)(Sc)^T
  Precond_solver : DEFAULT
  stepsize       :    0.08000000                  energy_gap     :    0.08000000
  eps_taylor     :   0.10000E-15                  max_taylor     :             4
  ----------------------------------- OT ---------------------------------------

  Step     Update method      Time    Convergence         Total energy    Change
  ------------------------------------------------------------------------------
     1 OT DIIS     0.80E-01    2.1     0.00090370      -115.2193626940 -1.15E+02
     2 OT DIIS     0.80E-01    2.7     0.00054240      -115.2195826852 -2.20E-04
     3 OT DIIS     0.80E-01    2.6     0.00026857      -115.2196363190 -5.36E-05
     4 OT DIIS     0.80E-01    2.7     0.00012010      -115.2196563087 -2.00E-05
     5 OT DIIS     0.80E-01    2.6     0.00006242      -115.2196614462 -5.14E-06
     6 OT DIIS     0.80E-01    2.6     0.00004734      -115.2196626161 -1.17E-06
     7 OT DIIS     0.80E-01    2.7     0.00001937      -115.2196631471 -5.31E-07
     8 OT DIIS     0.80E-01    2.6     0.00000985      -115.2196632514 -1.04E-07
     9 OT DIIS     0.80E-01    2.6     0.00000493      -115.2196632834 -3.20E-08
    10 OT DIIS     0.80E-01    2.7     0.00000432      -115.2196632886 -5.19E-09
    11 OT DIIS     0.80E-01    2.6     0.00000170      -115.2196632926 -3.97E-09
    12 OT DIIS     0.80E-01    2.6     0.00000099      -115.2196632933 -7.13E-10

  *** SCF run converged in    12 steps ***


  Electronic density on regular grids:        -70.0000000026       -0.0000000026
  Core density on regular grids:               69.9999999957       -0.0000000043
  Total charge density on r-space grids:       -0.0000000068
  Total charge density g-space grids:          -0.0000000068

  Overlap energy of the core charge distribution:               0.00000350876719
  Self energy of the core charge distribution:               -278.09582761455005
  Core Hamiltonian energy:                                     84.35684982660356
  Hartree energy:                                             112.53782870254689
  Exchange-correlation energy:                                -31.87835291214294
  QM/MM Electrostatic energy:                                  -2.14016480452786

  Total energy:                                              -115.21966329330321

  outer SCF iter =    1 RMS gradient =   0.99E-06 energy =       -115.2196632933
  outer SCF loop converged in   1 iterations or   12 steps


 ENERGY| Total FORCE_EVAL ( QMMM ) energy (a.u.):           -253.198568063372932


 *******************************************************************************
 ENSEMBLE TYPE                =                                              NVT
 STEP NUMBER                  =                                                4
 TIME [fs]                    =                                         4.000000
 CONSERVED QUANTITY [hartree] =                              -0.209040805047E+03

                                              INSTANTANEOUS             AVERAGES
 CPU TIME [s]                 =                       79.77               126.18
 ENERGY DRIFT PER ATOM [K]    =          0.281105784370E+00   0.955732640756E-01
 POTENTIAL ENERGY[hartree]    =         -0.253198568063E+03  -0.253083165108E+03
 TOTAL KINETIC ENERGY[hartree]=          0.441454453140E+02   0.440248634502E+02
 QM KINETIC ENERGY[hartree]   =          0.422238257388E-01   0.392335729477E-01
 TOTAL TEMPERATURE[K]         =                     300.493              299.672
 QM TEMPERATURE[K]            =                     404.037              375.423
 *******************************************************************************


  Translating the system in order to center the QM fragment in the QM box.

 Number of electrons:                                                         70
 Number of occupied orbitals:                                                 35
 Number of molecular orbitals:                                                35

 Number of orbital functions:                                                222
 Number of independent orbital functions:                                    222

 Extrapolation method: ASPC


 SCF WAVEFUNCTION OPTIMIZATION

  ----------------------------------- OT ---------------------------------------
  Minimizer      : DIIS                : direct inversion
                                         in the iterative subspace
                                         using   7 DIIS vectors
                                         safer DIIS on
  Preconditioner : FULL_SINGLE_INVERSE : inversion of 
                                         H + eS - 2*(Sc)(c^T*H*c+const)(Sc)^T
  Precond_solver : DEFAULT
  stepsize       :    0.08000000                  energy_gap     :    0.08000000
  eps_taylor     :   0.10000E-15                  max_taylor     :             4
  ----------------------------------- OT ---------------------------------------

  Step     Update method      Time    Convergence         Total energy    Change
  ------------------------------------------------------------------------------
     1 OT DIIS     0.80E-01    2.1     0.00135593      -115.1185847256 -1.15E+02
     2 OT DIIS     0.80E-01    2.8     0.00096865      -115.1190110798 -4.26E-04
     3 OT DIIS     0.80E-01    2.7     0.00044994      -115.1191500300 -1.39E-04
     4 OT DIIS     0.80E-01    2.6     0.00020029      -115.1191937432 -4.37E-05
     5 OT DIIS     0.80E-01    2.7     0.00012376      -115.1192050439 -1.13E-05
     6 OT DIIS     0.80E-01    2.6     0.00008527      -115.1192079976 -2.95E-06
     7 OT DIIS     0.80E-01    2.7     0.00004183      -115.1192096343 -1.64E-06
     8 OT DIIS     0.80E-01    2.6     0.00002118      -115.1192100648 -4.31E-07
     9 OT DIIS     0.80E-01    2.6     0.00001643      -115.1192101900 -1.25E-07
    10 OT DIIS     0.80E-01    2.7     0.00000908      -115.1192102293 -3.92E-08
    11 OT DIIS     0.80E-01    2.6     0.00000513      -115.1192102503 -2.11E-08
    12 OT DIIS     0.80E-01    2.7     0.00000300      -115.1192102568 -6.45E-09
    13 OT DIIS     0.80E-01    2.6     0.00000193      -115.1192102556  1.11E-09
    14 OT DIIS     0.80E-01    2.7     0.00000160      -115.1192102562 -5.16E-10
    15 OT DIIS     0.80E-01    2.6     0.00000095      -115.1192102566 -4.08E-10

  *** SCF run converged in    15 steps ***


  Electronic density on regular grids:        -69.9999999987        0.0000000013
  Core density on regular grids:               69.9999999957       -0.0000000043
  Total charge density on r-space grids:       -0.0000000030
  Total charge density g-space grids:          -0.0000000030

  Overlap energy of the core charge distribution:               0.00000342899839
  Self energy of the core charge distribution:               -278.09582761455005
  Core Hamiltonian energy:                                     84.27560054169982
  Hartree energy:                                             112.59590063160059
  Exchange-correlation energy:                                -31.85292835388585
  QM/MM Electrostatic energy:                                  -2.04195889043164

  Total energy:                                              -115.11921025656873

  outer SCF iter =    1 RMS gradient =   0.95E-06 energy =       -115.1192102566
  outer SCF loop converged in   1 iterations or   15 steps


 ENERGY| Total FORCE_EVAL ( QMMM ) energy (a.u.):           -253.378752700118582


 *******************************************************************************
 ENSEMBLE TYPE                =                                              NVT
 STEP NUMBER                  =                                                5
 TIME [fs]                    =                                         5.000000
 CONSERVED QUANTITY [hartree] =                              -0.209067382041E+03

                                              INSTANTANEOUS             AVERAGES
 CPU TIME [s]                 =                       87.84               118.51
 ENERGY DRIFT PER ATOM [K]    =          0.975487595514E-02   0.784095864515E-01
 POTENTIAL ENERGY[hartree]    =         -0.253378752700E+03  -0.253142282627E+03
 TOTAL KINETIC ENERGY[hartree]=          0.442959262546E+02   0.440790760111E+02
 QM KINETIC ENERGY[hartree]   =          0.416148648301E-01   0.397098313242E-01
 TOTAL TEMPERATURE[K]         =                     301.517              300.041
 QM TEMPERATURE[K]            =                     398.210              379.981
 *******************************************************************************


  Translating the system in order to center the QM fragment in the QM box.

 Number of electrons:                                                         70
 Number of occupied orbitals:                                                 35
 Number of molecular orbitals:                                                35

 Number of orbital functions:                                                222
 Number of independent orbital functions:                                    222

 Extrapolation method: ASPC


 SCF WAVEFUNCTION OPTIMIZATION

  ----------------------------------- OT ---------------------------------------
  Minimizer      : DIIS                : direct inversion
                                         in the iterative subspace
                                         using   7 DIIS vectors
                                         safer DIIS on
  Preconditioner : FULL_SINGLE_INVERSE : inversion of 
                                         H + eS - 2*(Sc)(c^T*H*c+const)(Sc)^T
  Precond_solver : DEFAULT
  stepsize       :    0.08000000                  energy_gap     :    0.08000000
  eps_taylor     :   0.10000E-15                  max_taylor     :             4
  ----------------------------------- OT ---------------------------------------

  Step     Update method      Time    Convergence         Total energy    Change
  ------------------------------------------------------------------------------
     1 OT DIIS     0.80E-01    2.1     0.00107802      -115.0348706226 -1.15E+02
     2 OT DIIS     0.80E-01    2.7     0.00051922      -115.0352440381 -3.73E-04
     3 OT DIIS     0.80E-01    2.6     0.00029804      -115.0353117084 -6.77E-05
     4 OT DIIS     0.80E-01    2.6     0.00014280      -115.0353405233 -2.88E-05
     5 OT DIIS     0.80E-01    2.6     0.00006401      -115.0353482840 -7.76E-06
     6 OT DIIS     0.80E-01    2.6     0.00003580      -115.0353508512 -2.57E-06
     7 OT DIIS     0.80E-01    2.7     0.00002241      -115.0353514515 -6.00E-07
     8 OT DIIS     0.80E-01    2.6     0.00001505      -115.0353517019 -2.50E-07
     9 OT DIIS     0.80E-01    2.6     0.00000839      -115.0353517897 -8.78E-08
    10 OT DIIS     0.80E-01    2.7     0.00000405      -115.0353518416 -5.20E-08
    11 OT DIIS     0.80E-01    2.6     0.00000289      -115.0353518530 -1.13E-08
    12 OT DIIS     0.80E-01    2.6     0.00000173      -115.0353518565 -3.49E-09
    13 OT DIIS     0.80E-01    2.7     0.00000098      -115.0353518577 -1.26E-09

  *** SCF run converged in    13 steps ***


  Electronic density on regular grids:        -69.9999999975        0.0000000025
  Core density on regular grids:               69.9999999957       -0.0000000043
  Total charge density on r-space grids:       -0.0000000018
  Total charge density g-space grids:          -0.0000000018

  Overlap energy of the core charge distribution:               0.00000364403679
  Self energy of the core charge distribution:               -278.09582761455005
  Core Hamiltonian energy:                                     84.24374520321541
  Hartree energy:                                             112.61934693468717
  Exchange-correlation energy:                                -31.84411808300297
  QM/MM Electrostatic energy:                                  -1.95850194212150

  Total energy:                                              -115.03535185773515

  outer SCF iter =    1 RMS gradient =   0.98E-06 energy =       -115.0353518577
  outer SCF loop converged in   1 iterations or   13 steps


 ENERGY| Total FORCE_EVAL ( QMMM ) energy (a.u.):           -253.435868564737433


 *******************************************************************************
 ENSEMBLE TYPE                =                                              NVT
 STEP NUMBER                  =                                                6
 TIME [fs]                    =                                         6.000000
 CONSERVED QUANTITY [hartree] =                              -0.209045536056E+03

                                              INSTANTANEOUS             AVERAGES
 CPU TIME [s]                 =                       82.86               112.57
 ENERGY DRIFT PER ATOM [K]    =          0.232802223626E+00   0.104141692647E+00
 POTENTIAL ENERGY[hartree]    =         -0.253435868565E+03  -0.253191213616E+03
 TOTAL KINETIC ENERGY[hartree]=          0.443716507183E+02   0.441278384623E+02
 QM KINETIC ENERGY[hartree]   =          0.425488087172E-01   0.401829942230E-01
 TOTAL TEMPERATURE[K]         =                     302.033              300.373
 QM TEMPERATURE[K]            =                     407.147              384.508
 *******************************************************************************


  Translating the system in order to center the QM fragment in the QM box.

 Number of electrons:                                                         70
 Number of occupied orbitals:                                                 35
 Number of molecular orbitals:                                                35

 Number of orbital functions:                                                222
 Number of independent orbital functions:                                    222

 Extrapolation method: ASPC


 SCF WAVEFUNCTION OPTIMIZATION

  ----------------------------------- OT ---------------------------------------
  Minimizer      : DIIS                : direct inversion
                                         in the iterative subspace
                                         using   7 DIIS vectors
                                         safer DIIS on
  Preconditioner : FULL_SINGLE_INVERSE : inversion of 
                                         H + eS - 2*(Sc)(c^T*H*c+const)(Sc)^T
  Precond_solver : DEFAULT
  stepsize       :    0.08000000                  energy_gap     :    0.08000000
  eps_taylor     :   0.10000E-15                  max_taylor     :             4
  ----------------------------------- OT ---------------------------------------

  Step     Update method      Time    Convergence         Total energy    Change
  ------------------------------------------------------------------------------
     1 OT DIIS     0.80E-01    2.3     0.00078639      -114.9403423523 -1.15E+02
     2 OT DIIS     0.80E-01    2.6     0.00042592      -114.9405364223 -1.94E-04
     3 OT DIIS     0.80E-01    2.7     0.00027166      -114.9405731040 -3.67E-05
     4 OT DIIS     0.80E-01    2.6     0.00012401      -114.9405919373 -1.88E-05
     5 OT DIIS     0.80E-01    2.7     0.00006453      -114.9405972363 -5.30E-06
     6 OT DIIS     0.80E-01    2.7     0.00005346      -114.9405986728 -1.44E-06
     7 OT DIIS     0.80E-01    2.6     0.00001997      -114.9405994426 -7.70E-07
     8 OT DIIS     0.80E-01    2.7     0.00001179      -114.9405996267 -1.84E-07
     9 OT DIIS     0.80E-01    2.6     0.00000633      -114.9405996872 -6.05E-08
    10 OT DIIS     0.80E-01    2.6     0.00000562      -114.9405997067 -1.95E-08
    11 OT DIIS     0.80E-01    2.6     0.00000252      -114.9405997140 -7.25E-09
    12 OT DIIS     0.80E-01    2.7     0.00000130      -114.9405997165 -2.57E-09
    13 OT DIIS     0.80E-01    2.6     0.00000077      -114.9405997173 -7.22E-10

  *** SCF run converged in    13 steps ***


  Electronic density on regular grids:        -69.9999999964        0.0000000036
  Core density on regular grids:               69.9999999957       -0.0000000043
  Total charge density on r-space grids:       -0.0000000007
  Total charge density g-space grids:          -0.0000000007

  Overlap energy of the core charge distribution:               0.00000415848581
  Self energy of the core charge distribution:               -278.09582761455005
  Core Hamiltonian energy:                                     84.26838585707551
  Hartree energy:                                             112.60321646353215
  Exchange-correlation energy:                                -31.85411044057112
  QM/MM Electrostatic energy:                                  -1.86226814122994

  Total energy:                                              -114.94059971725763

  outer SCF iter =    1 RMS gradient =   0.77E-06 energy =       -114.9405997173
  outer SCF loop converged in   1 iterations or   13 steps


 ENERGY| Total FORCE_EVAL ( QMMM ) energy (a.u.):           -253.586454398639120


 *******************************************************************************
 ENSEMBLE TYPE                =                                              NVT
 STEP NUMBER                  =                                                7
 TIME [fs]                    =                                         7.000000
 CONSERVED QUANTITY [hartree] =                              -0.209055750508E+03

                                              INSTANTANEOUS             AVERAGES
 CPU TIME [s]                 =                       82.47               108.27
 ENERGY DRIFT PER ATOM [K]    =          0.128512739240E+00   0.107623270732E+00
 POTENTIAL ENERGY[hartree]    =         -0.253586454399E+03  -0.253247676585E+03
 TOTAL KINETIC ENERGY[hartree]=          0.445086552258E+02   0.441822408571E+02
 QM KINETIC ENERGY[hartree]   =          0.456518190296E-01   0.409642549097E-01
 TOTAL TEMPERATURE[K]         =                     302.965              300.743
 QM TEMPERATURE[K]            =                     436.839              391.984
 *******************************************************************************


  Translating the system in order to center the QM fragment in the QM box.

 Number of electrons:                                                         70
 Number of occupied orbitals:                                                 35
 Number of molecular orbitals:                                                35

 Number of orbital functions:                                                222
 Number of independent orbital functions:                                    222

 Extrapolation method: ASPC


 SCF WAVEFUNCTION OPTIMIZATION

  ----------------------------------- OT ---------------------------------------
  Minimizer      : DIIS                : direct inversion
                                         in the iterative subspace
                                         using   7 DIIS vectors
                                         safer DIIS on
  Preconditioner : FULL_SINGLE_INVERSE : inversion of 
                                         H + eS - 2*(Sc)(c^T*H*c+const)(Sc)^T
  Precond_solver : DEFAULT
  stepsize       :    0.08000000                  energy_gap     :    0.08000000
  eps_taylor     :   0.10000E-15                  max_taylor     :             4
  ----------------------------------- OT ---------------------------------------

  Step     Update method      Time    Convergence         Total energy    Change
  ------------------------------------------------------------------------------
     1 OT DIIS     0.80E-01    2.1     0.00063279      -114.8429162912 -1.15E+02
     2 OT DIIS     0.80E-01    2.7     0.00032724      -114.8430349115 -1.19E-04
     3 OT DIIS     0.80E-01    2.6     0.00016669      -114.8430577610 -2.28E-05
     4 OT DIIS     0.80E-01    2.6     0.00008270      -114.8430660032 -8.24E-06
     5 OT DIIS     0.80E-01    2.6     0.00004878      -114.8430678563 -1.85E-06
     6 OT DIIS     0.80E-01    2.6     0.00002598      -114.8430685932 -7.37E-07
     7 OT DIIS     0.80E-01    2.6     0.00001086      -114.8430688741 -2.81E-07
     8 OT DIIS     0.80E-01    2.7     0.00000574      -114.8430689178 -4.37E-08
     9 OT DIIS     0.80E-01    2.6     0.00000334      -114.8430689319 -1.42E-08
    10 OT DIIS     0.80E-01    2.6     0.00000257      -114.8430689376 -5.64E-09
    11 OT DIIS     0.80E-01    2.8     0.00000136      -114.8430689398 -2.26E-09
    12 OT DIIS     0.80E-01    2.6     0.00000069      -114.8430689406 -7.65E-10

  *** SCF run converged in    12 steps ***


  Electronic density on regular grids:        -69.9999999951        0.0000000049
  Core density on regular grids:               69.9999999956       -0.0000000044
  Total charge density on r-space grids:        0.0000000006
  Total charge density g-space grids:           0.0000000006

  Overlap energy of the core charge distribution:               0.00000497511003
  Self energy of the core charge distribution:               -278.09582761455005
  Core Hamiltonian energy:                                     84.34414041932384
  Hartree energy:                                             112.55189978906083
  Exchange-correlation energy:                                -31.88060533215975
  QM/MM Electrostatic energy:                                  -1.76268117739114

  Total energy:                                              -114.84306894060627

  outer SCF iter =    1 RMS gradient =   0.69E-06 energy =       -114.8430689406
  outer SCF loop converged in   1 iterations or   12 steps


 ENERGY| Total FORCE_EVAL ( QMMM ) energy (a.u.):           -253.694319287987099


 *******************************************************************************
 ENSEMBLE TYPE                =                                              NVT
 STEP NUMBER                  =                                                8
 TIME [fs]                    =                                         8.000000
 CONSERVED QUANTITY [hartree] =                              -0.209078452516E+03

                                              INSTANTANEOUS             AVERAGES
 CPU TIME [s]                 =                       80.15               104.75
 ENERGY DRIFT PER ATOM [K]    =         -0.103274594836E+00   0.812610375360E-01
 POTENTIAL ENERGY[hartree]    =         -0.253694319288E+03  -0.253303506923E+03
 TOTAL KINETIC ENERGY[hartree]=          0.445902961799E+02   0.442332477724E+02
 QM KINETIC ENERGY[hartree]   =          0.492458111964E-01   0.419994494455E-01
 TOTAL TEMPERATURE[K]         =                     303.521              301.090
 QM TEMPERATURE[K]            =                     471.230              401.890
 *******************************************************************************


  Translating the system in order to center the QM fragment in the QM box.

 Number of electrons:                                                         70
 Number of occupied orbitals:                                                 35
 Number of molecular orbitals:                                                35

 Number of orbital functions:                                                222
 Number of independent orbital functions:                                    222

 Extrapolation method: ASPC


 SCF WAVEFUNCTION OPTIMIZATION

  ----------------------------------- OT ---------------------------------------
  Minimizer      : DIIS                : direct inversion
                                         in the iterative subspace
                                         using   7 DIIS vectors
                                         safer DIIS on
  Preconditioner : FULL_SINGLE_INVERSE : inversion of 
                                         H + eS - 2*(Sc)(c^T*H*c+const)(Sc)^T
  Precond_solver : DEFAULT
  stepsize       :    0.08000000                  energy_gap     :    0.08000000
  eps_taylor     :   0.10000E-15                  max_taylor     :             4
  ----------------------------------- OT ---------------------------------------

  Step     Update method      Time    Convergence         Total energy    Change
  ------------------------------------------------------------------------------
     1 OT DIIS     0.80E-01    2.1     0.00070693      -114.7956879304 -1.15E+02
     2 OT DIIS     0.80E-01    2.7     0.00034985      -114.7958450025 -1.57E-04
     3 OT DIIS     0.80E-01    2.6     0.00018272      -114.7958749668 -3.00E-05
     4 OT DIIS     0.80E-01    2.7     0.00008412      -114.7958865398 -1.16E-05
     5 OT DIIS     0.80E-01    2.6     0.00004826      -114.7958887600 -2.22E-06
     6 OT DIIS     0.80E-01    2.7     0.00002606      -114.7958895780 -8.18E-07
     7 OT DIIS     0.80E-01    2.7     0.00001203      -114.7958899237 -3.46E-07
     8 OT DIIS     0.80E-01    2.7     0.00000624      -114.7958899752 -5.15E-08
     9 OT DIIS     0.80E-01    2.6     0.00000366      -114.7958899561  1.91E-08
    10 OT DIIS     0.80E-01    2.7     0.00000259      -114.7958899618 -5.74E-09
    11 OT DIIS     0.80E-01    2.7     0.00000116      -114.7958899646 -2.74E-09
    12 OT DIIS     0.80E-01    2.6     0.00000064      -114.7958899653 -7.49E-10

  *** SCF run converged in    12 steps ***


  Electronic density on regular grids:        -69.9999999946        0.0000000054
  Core density on regular grids:               69.9999999957       -0.0000000043
  Total charge density on r-space grids:        0.0000000011
  Total charge density g-space grids:           0.0000000011

  Overlap energy of the core charge distribution:               0.00000603102583
  Self energy of the core charge distribution:               -278.09582761455005
  Core Hamiltonian energy:                                     84.45404985475309
  Hartree energy:                                             112.47716731919216
  Exchange-correlation energy:                                -31.91721890103774
  QM/MM Electrostatic energy:                                  -1.71406665471671

  Total energy:                                              -114.79588996533343

  outer SCF iter =    1 RMS gradient =   0.64E-06 energy =       -114.7958899653
  outer SCF loop converged in   1 iterations or   12 steps


 ENERGY| Total FORCE_EVAL ( QMMM ) energy (a.u.):           -253.525689531026501


 *******************************************************************************
 ENSEMBLE TYPE                =                                              NVT
 STEP NUMBER                  =                                                9
 TIME [fs]                    =                                         9.000000
 CONSERVED QUANTITY [hartree] =                              -0.209039493956E+03

                                              INSTANTANEOUS             AVERAGES
 CPU TIME [s]                 =                       80.78               102.09
 ENERGY DRIFT PER ATOM [K]    =          0.294492017868E+00   0.104953368684E+00
 POTENTIAL ENERGY[hartree]    =         -0.253525689531E+03  -0.253328193880E+03
 TOTAL KINETIC ENERGY[hartree]=          0.444569461196E+02   0.442581031443E+02
 QM KINETIC ENERGY[hartree]   =          0.507149629272E-01   0.429678398324E-01
 TOTAL TEMPERATURE[K]         =                     302.613              301.260
 QM TEMPERATURE[K]            =                     485.288              411.156
 *******************************************************************************


  Translating the system in order to center the QM fragment in the QM box.

 Number of electrons:                                                         70
 Number of occupied orbitals:                                                 35
 Number of molecular orbitals:                                                35

 Number of orbital functions:                                                222
 Number of independent orbital functions:                                    222

 Extrapolation method: ASPC


 SCF WAVEFUNCTION OPTIMIZATION

  ----------------------------------- OT ---------------------------------------
  Minimizer      : DIIS                : direct inversion
                                         in the iterative subspace
                                         using   7 DIIS vectors
                                         safer DIIS on
  Preconditioner : FULL_SINGLE_INVERSE : inversion of 
                                         H + eS - 2*(Sc)(c^T*H*c+const)(Sc)^T
  Precond_solver : DEFAULT
  stepsize       :    0.08000000                  energy_gap     :    0.08000000
  eps_taylor     :   0.10000E-15                  max_taylor     :             4
  ----------------------------------- OT ---------------------------------------

  Step     Update method      Time    Convergence         Total energy    Change
  ------------------------------------------------------------------------------
     1 OT DIIS     0.80E-01    2.4     0.00044017      -114.7344562447 -1.15E+02
     2 OT DIIS     0.80E-01    2.6     0.00022634      -114.7345259449 -6.97E-05
     3 OT DIIS     0.80E-01    2.7     0.00014424      -114.7345421335 -1.62E-05
     4 OT DIIS     0.80E-01    2.8     0.00007379      -114.7345505352 -8.40E-06
     5 OT DIIS     0.80E-01    2.6     0.00003370      -114.7345527470 -2.21E-06
     6 OT DIIS     0.80E-01    2.7     0.00002051      -114.7345532418 -4.95E-07
     7 OT DIIS     0.80E-01    2.7     0.00001045      -114.7345533964 -1.55E-07
     8 OT DIIS     0.80E-01    2.8     0.00000598      -114.7345534086 -1.22E-08
     9 OT DIIS     0.80E-01    2.6     0.00000303      -114.7345534233 -1.47E-08
    10 OT DIIS     0.80E-01    2.8     0.00000163      -114.7345534297 -6.41E-09
    11 OT DIIS     0.80E-01    2.7     0.00000112      -114.7345534311 -1.36E-09
    12 OT DIIS     0.80E-01    2.6     0.00000071      -114.7345534316 -5.19E-10

  *** SCF run converged in    12 steps ***


  Electronic density on regular grids:        -69.9999999932        0.0000000068
  Core density on regular grids:               69.9999999956       -0.0000000044
  Total charge density on r-space grids:        0.0000000025
  Total charge density g-space grids:           0.0000000025

  Overlap energy of the core charge distribution:               0.00000724683669
  Self energy of the core charge distribution:               -278.09582761455005
  Core Hamiltonian energy:                                     84.56173159982758
  Hartree energy:                                             112.40518280312230
  Exchange-correlation energy:                                -31.95126556709234
  QM/MM Electrostatic energy:                                  -1.65438189974703

  Total energy:                                              -114.73455343160288

  outer SCF iter =    1 RMS gradient =   0.71E-06 energy =       -114.7345534316
  outer SCF loop converged in   1 iterations or   12 steps


 ENERGY| Total FORCE_EVAL ( QMMM ) energy (a.u.):           -253.550019650022989


 *******************************************************************************
 ENSEMBLE TYPE                =                                              NVT
 STEP NUMBER                  =                                               10
 TIME [fs]                    =                                        10.000000
 CONSERVED QUANTITY [hartree] =                              -0.209059891250E+03

                                              INSTANTANEOUS             AVERAGES
 CPU TIME [s]                 =                       80.54                99.94
 ENERGY DRIFT PER ATOM [K]    =          0.862357974950E-01   0.103081611565E+00
 POTENTIAL ENERGY[hartree]    =         -0.253550019650E+03  -0.253350376457E+03
 TOTAL KINETIC ENERGY[hartree]=          0.444570651661E+02   0.442779993465E+02
 QM KINETIC ENERGY[hartree]   =          0.486831470174E-01   0.435393705509E-01
 TOTAL TEMPERATURE[K]         =                     302.614              301.395
 QM TEMPERATURE[K]            =                     465.846              416.625
 *******************************************************************************


  Translating the system in order to center the QM fragment in the QM box.

 Number of electrons:                                                         70
 Number of occupied orbitals:                                                 35
 Number of molecular orbitals:                                                35

 Number of orbital functions:                                                222
 Number of independent orbital functions:                                    222

 Extrapolation method: ASPC


 SCF WAVEFUNCTION OPTIMIZATION

  ----------------------------------- OT ---------------------------------------
  Minimizer      : DIIS                : direct inversion
                                         in the iterative subspace
                                         using   7 DIIS vectors
                                         safer DIIS on
  Preconditioner : FULL_SINGLE_INVERSE : inversion of 
                                         H + eS - 2*(Sc)(c^T*H*c+const)(Sc)^T
  Precond_solver : DEFAULT
  stepsize       :    0.08000000                  energy_gap     :    0.08000000
  eps_taylor     :   0.10000E-15                  max_taylor     :             4
  ----------------------------------- OT ---------------------------------------

  Step     Update method      Time    Convergence         Total energy    Change
  ------------------------------------------------------------------------------
     1 OT DIIS     0.80E-01    2.1     0.00055210      -114.6376995748 -1.15E+02
     2 OT DIIS     0.80E-01    2.7     0.00027440      -114.6378168739 -1.17E-04
     3 OT DIIS     0.80E-01    2.7     0.00017021      -114.6378452219 -2.83E-05
     4 OT DIIS     0.80E-01    2.6     0.00007603      -114.6378583561 -1.31E-05
     5 OT DIIS     0.80E-01    2.7     0.00004540      -114.6378608291 -2.47E-06
     6 OT DIIS     0.80E-01    2.7     0.00002332      -114.6378614547 -6.26E-07
     7 OT DIIS     0.80E-01    2.7     0.00000887      -114.6378616570 -2.02E-07
     8 OT DIIS     0.80E-01    2.6     0.00000513      -114.6378616769 -1.99E-08
     9 OT DIIS     0.80E-01    2.6     0.00000286      -114.6378616890 -1.21E-08
    10 OT DIIS     0.80E-01    2.8     0.00000177      -114.6378616923 -3.31E-09
    11 OT DIIS     0.80E-01    2.7     0.00000073      -114.6378616941 -1.83E-09

  *** SCF run converged in    11 steps ***


  Electronic density on regular grids:        -70.0000000002       -0.0000000002
  Core density on regular grids:               69.9999999957       -0.0000000043
  Total charge density on r-space grids:       -0.0000000045
  Total charge density g-space grids:          -0.0000000045

  Overlap energy of the core charge distribution:               0.00000837042955
  Self energy of the core charge distribution:               -278.09582761455005
  Core Hamiltonian energy:                                     84.62950071346877
  Hartree energy:                                             112.35924088303523
  Exchange-correlation energy:                                -31.97154502192845
  QM/MM Electrostatic energy:                                  -1.55923902455835

  Total energy:                                              -114.63786169410331

  outer SCF iter =    1 RMS gradient =   0.73E-06 energy =       -114.6378616941
  outer SCF loop converged in   1 iterations or   11 steps


 ENERGY| Total FORCE_EVAL ( QMMM ) energy (a.u.):           -253.567303800268292


 *******************************************************************************
 ENSEMBLE TYPE                =                                              NVT
 STEP NUMBER                  =                                               11
 TIME [fs]                    =                                        11.000000
 CONSERVED QUANTITY [hartree] =                              -0.209061957457E+03

                                              INSTANTANEOUS             AVERAGES
 CPU TIME [s]                 =                       77.60                97.91
 ENERGY DRIFT PER ATOM [K]    =          0.651398364651E-01   0.996323592833E-01
 POTENTIAL ENERGY[hartree]    =         -0.253567303800E+03  -0.253370097124E+03
 TOTAL KINETIC ENERGY[hartree]=          0.444683318398E+02   0.442953023004E+02
 QM KINETIC ENERGY[hartree]   =          0.451939696037E-01   0.436897886466E-01
 TOTAL TEMPERATURE[K]         =                     302.691              301.513
 QM TEMPERATURE[K]            =                     432.458              418.064
 *******************************************************************************


  Translating the system in order to center the QM fragment in the QM box.

 Number of electrons:                                                         70
 Number of occupied orbitals:                                                 35
 Number of molecular orbitals:                                                35

 Number of orbital functions:                                                222
 Number of independent orbital functions:                                    222

 Extrapolation method: ASPC


 SCF WAVEFUNCTION OPTIMIZATION

  ----------------------------------- OT ---------------------------------------
  Minimizer      : DIIS                : direct inversion
                                         in the iterative subspace
                                         using   7 DIIS vectors
                                         safer DIIS on
  Preconditioner : FULL_SINGLE_INVERSE : inversion of 
                                         H + eS - 2*(Sc)(c^T*H*c+const)(Sc)^T
  Precond_solver : DEFAULT
  stepsize       :    0.08000000                  energy_gap     :    0.08000000
  eps_taylor     :   0.10000E-15                  max_taylor     :             4
  ----------------------------------- OT ---------------------------------------

  Step     Update method      Time    Convergence         Total energy    Change
  ------------------------------------------------------------------------------
     1 OT DIIS     0.80E-01    2.2     0.00059991      -114.5470838006 -1.15E+02
     2 OT DIIS     0.80E-01    2.7     0.00029262      -114.5472154218 -1.32E-04
     3 OT DIIS     0.80E-01    3.0     0.00016797      -114.5472468815 -3.15E-05
     4 OT DIIS     0.80E-01    2.6     0.00007498      -114.5472625964 -1.57E-05
     5 OT DIIS     0.80E-01    2.6     0.00004117      -114.5472650431 -2.45E-06
     6 OT DIIS     0.80E-01    2.7     0.00002197      -114.5472657404 -6.97E-07
     7 OT DIIS     0.80E-01    2.6     0.00000968      -114.5472659069 -1.67E-07
     8 OT DIIS     0.80E-01    2.7     0.00000508      -114.5472659399 -3.30E-08
     9 OT DIIS     0.80E-01    2.6     0.00000274      -114.5472659498 -9.84E-09
    10 OT DIIS     0.80E-01    2.6     0.00000155      -114.5472659532 -3.39E-09
    11 OT DIIS     0.80E-01    2.8     0.00000084      -114.5472659541 -9.56E-10

  *** SCF run converged in    11 steps ***


  Electronic density on regular grids:        -70.0000000046       -0.0000000046
  Core density on regular grids:               69.9999999958       -0.0000000042
  Total charge density on r-space grids:       -0.0000000088
[...]
  Core density on regular grids:               69.9999999957       -0.0000000043
  Total charge density on r-space grids:       -0.0000000094
  Total charge density g-space grids:          -0.0000000094

  Overlap energy of the core charge distribution:               0.00000344225647
  Self energy of the core charge distribution:               -278.09582761455005
  Core Hamiltonian energy:                                     84.17643996805613
  Hartree energy:                                             112.65822222312616
  Exchange-correlation energy:                                -31.82857556249383
  QM/MM Electrostatic energy:                                  -1.58061129328823

  Total energy:                                              -114.67034883689337

  outer SCF iter =    1 RMS gradient =   0.74E-06 energy =       -114.6703488369
  outer SCF loop converged in   1 iterations or   12 steps


 ENERGY| Total FORCE_EVAL ( QMMM ) energy (a.u.):           -253.416707708738898


 *******************************************************************************
 ENSEMBLE TYPE                =                                              NVT
 STEP NUMBER                  =                                               40
 TIME [fs]                    =                                        40.000000
 CONSERVED QUANTITY [hartree] =                              -0.209067161792E+03

                                              INSTANTANEOUS             AVERAGES
 CPU TIME [s]                 =                       80.64                83.43
 ENERGY DRIFT PER ATOM [K]    =          0.120036184715E-01   0.966338101930E-01
 POTENTIAL ENERGY[hartree]    =         -0.253416707709E+03  -0.253502944212E+03
 TOTAL KINETIC ENERGY[hartree]=          0.441454820632E+02   0.443552313413E+02
 QM KINETIC ENERGY[hartree]   =          0.598807363438E-01   0.442391214870E-01
 TOTAL TEMPERATURE[K]         =                     300.493              301.921
 QM TEMPERATURE[K]            =                     572.994              423.321
 *******************************************************************************


 -------------------------------------------------------------------------------
 -                                                                             -
 -                                DBCSR STATISTICS                             -
 -                                                                             -
 -------------------------------------------------------------------------------
 COUNTER                                    TOTAL       BLAS       SMM       ACC
 flops     3 x     3 x     3               160596       0.0%    100.0%      0.0%
 flops    13 x     3 x     3               275184       0.0%    100.0%      0.0%
 flops     5 x     3 x     3               281970       0.0%    100.0%      0.0%
 flops    15 x     3 x     3               664470       0.0%    100.0%      0.0%
 flops     3 x     3 x     5              1465920       0.0%    100.0%      0.0%
 flops    13 x    32 x     3              1467648       0.0%    100.0%      0.0%
 flops    13 x     3 x    32              1467648       0.0%    100.0%      0.0%
 flops     3 x     3 x    32              1713024       0.0%    100.0%      0.0%
 flops     3 x    32 x     3              1713024       0.0%    100.0%      0.0%
 flops    32 x     3 x     3              1713024       0.0%    100.0%      0.0%
 flops    15 x     3 x     5              1983600       0.0%    100.0%      0.0%
 flops     5 x     3 x    32              2685120       0.0%    100.0%      0.0%
 flops     5 x    32 x     3              2685120       0.0%    100.0%      0.0%
 flops     5 x     5 x     3              3418200       0.0%    100.0%      0.0%
 flops    39 x     3 x     3              3455244       0.0%    100.0%      0.0%
 flops    31 x     3 x     3              5492952       0.0%    100.0%      0.0%
 flops     3 x     3 x    13              6669936       0.0%    100.0%      0.0%
 flops    15 x     3 x    32              7087680       0.0%    100.0%      0.0%
 flops    15 x    32 x     3              7087680       0.0%    100.0%      0.0%
 flops    15 x     3 x    13              9025380       0.0%    100.0%      0.0%
 flops    39 x     3 x     5             10314720       0.0%    100.0%      0.0%
 flops     5 x    13 x     3             13824720       0.0%    100.0%      0.0%
 flops    13 x     5 x     3             13824720       0.0%    100.0%      0.0%
 flops     5 x     3 x     5             13899600       0.0%    100.0%      0.0%
 flops    32 x     3 x     5             15313920       0.0%    100.0%      0.0%
 flops     3 x    32 x     5             15636480       0.0%    100.0%      0.0%
 flops    31 x     3 x     5             16397760       0.0%    100.0%      0.0%
 flops    32 x    32 x     3             18272256       0.0%    100.0%      0.0%
 flops     3 x    32 x    32             18272256       0.0%    100.0%      0.0%
 flops    32 x     3 x    32             18272256       0.0%    100.0%      0.0%
 flops    15 x    32 x     5             21158400       0.0%    100.0%      0.0%
 flops    13 x    32 x    32             31309824       0.0%    100.0%      0.0%
 flops     5 x    32 x    32             32081920       0.0%    100.0%      0.0%
 flops     5 x     5 x    32             36460800       0.0%    100.0%      0.0%
 flops    39 x     3 x    32             36855936       0.0%    100.0%      0.0%
 flops    39 x    32 x     3             36855936       0.0%    100.0%      0.0%
 flops    39 x     3 x    13             46931976       0.0%    100.0%      0.0%
 flops    31 x    32 x     3             58591488       0.0%    100.0%      0.0%
 flops    31 x     3 x    32             58591488       0.0%    100.0%      0.0%
 flops    13 x     3 x     5             60234720       0.0%    100.0%      0.0%
 flops     5 x     3 x    13             63243180       0.0%    100.0%      0.0%
 flops    13 x    13 x     3             67395510       0.0%    100.0%      0.0%
 flops    32 x     3 x    13             69678336       0.0%    100.0%      0.0%
 flops     3 x    32 x    13             71145984       0.0%    100.0%      0.0%
 flops    31 x     3 x    13             74609808       0.0%    100.0%      0.0%
 flops    15 x    32 x    32             75601920       0.0%    100.0%      0.0%
 flops    15 x    32 x    13             96270720       0.0%    100.0%      0.0%
 flops    39 x    32 x     5            110023680       0.0%    100.0%      0.0%
 flops     5 x    13 x    32            147463680       0.0%    100.0%      0.0%
 flops    13 x     5 x    32            147463680       0.0%    100.0%      0.0%
 flops     5 x    32 x     5            148262400       0.0%    100.0%      0.0%
 flops    32 x    32 x     5            166789120       0.0%    100.0%      0.0%
 flops    31 x    32 x     5            174909440       0.0%    100.0%      0.0%
 flops    32 x    32 x    32            194904064       0.0%    100.0%      0.0%
 flops    13 x     3 x    13            274067976       0.0%    100.0%      0.0%
 flops    39 x    32 x    32            393129984       0.0%    100.0%      0.0%
 flops    39 x    32 x    13            500607744       0.0%    100.0%      0.0%
 flops    31 x    32 x    32            624975872       0.0%    100.0%      0.0%
 flops    13 x    32 x     5            642503680       0.0%    100.0%      0.0%
 flops     5 x    32 x    13            674593920       0.0%    100.0%      0.0%
 flops    13 x    13 x    32            718885440       0.0%    100.0%      0.0%
 flops    32 x    32 x    13            758890496       0.0%    100.0%      0.0%
 flops    31 x    32 x    13            795837952       0.0%    100.0%      0.0%
 flops    13 x    32 x    13           2923391744       0.0%    100.0%      0.0%
 flops inhomo. stacks                           0       0.0%      0.0%      0.0%
 flops total                        10.548261E+09       0.0%    100.0%      0.0%
 flops max/rank                      2.201041E+09       0.0%    100.0%      0.0%
 matmuls inhomo. stacks                         0       0.0%      0.0%      0.0%
 matmuls total                            2135454       0.0%    100.0%      0.0%
 number of processed stacks               1419830       0.0%    100.0%      0.0%
 average stack size                                     0.0       1.5       0.0
 marketing flops                    11.611244E+09
 -------------------------------------------------------------------------------
 # multiplications                          10160
 max memory usage/rank               1.907368E+09
 # max total images/rank                        3
 # max 3D layers                                1
 # MPI messages exchanged                53644800
 MPI messages size (bytes):
  total size                        15.997653E+09
  min size                           0.000000E+00
  max size                           9.984000E+03
  average size                     298.214417E+00
 MPI breakdown and total messages size (bytes):
             size <=      128            46567202                 75082656
       128 < size <=     8192             7007682              15221843208
      8192 < size <=    32768               69916                698041344
     32768 < size <=   131072                   0                        0
    131072 < size <=  4194304                   0                        0
   4194304 < size <= 16777216                   0                        0
  16777216 < size                               0                        0
 -------------------------------------------------------------------------------

 *** WARNING in dbcsr/mm/dbcsr_mm.F:268 :: Using a non-square number of ***
 *** MPI ranks might lead to poor performance.                          ***
 *** Used ranks: 96                                                     ***
 *** Suggested: 100 196                                                 ***

 -------------------------------------------------------------------------------

 MEMORY| Estimated peak process memory [MiB]                                1820

 -------------------------------------------------------------------------------
 -                                                                             -
 -                         MESSAGE PASSING PERFORMANCE                         -
 -                                                                             -
 -------------------------------------------------------------------------------

 ROUTINE             CALLS      AVE VOLUME [Bytes]
 MP_Group              480
 MP_Bcast            10883                1142948.
 MP_Allreduce        84732                 675605.
 MP_Sync                76
 MP_Alltoall         47888                7444547.
 MP_ISendRecv       209000                 104976.
 MP_Wait           1429633
 MP_comm_split          30
 MP_ISend          1240233                  29040.
 MP_IRecv          1237886                  28981.
 MP_Memory          935814
 -------------------------------------------------------------------------------


 -------------------------------------------------------------------------------
 -                                                                             -
 -                           R E F E R E N C E S                               -
 -                                                                             -
 -------------------------------------------------------------------------------
 
 CP2K version 6.1, the CP2K developers group (2018).
 CP2K is freely available from https://www.cp2k.org/ .

 Schuett, Ole; Messmer, Peter; Hutter, Juerg; VandeVondele, Joost. 
 Electronic Structure Calculations on Graphics Processing Units, John Wiley & Sons, Ltd, 173-190 (2016). 
 GPU-Accelerated Sparse Matrix-Matrix Multiplication for Linear Scaling Density Functional Theory.
 http://dx.doi.org/10.1002/9781118670712.ch8


 Borstnik, U; VandeVondele, J; Weber, V; Hutter, J. 
 PARALLEL COMPUTING, 40 (5-6), 47-58 (2014). 
 Sparse matrix multiplication: The distributed block-compressed sparse
 row library.
 http://dx.doi.org/10.1016/j.parco.2014.03.012


 Hutter, J; Iannuzzi, M; Schiffmann, F; VandeVondele, J. 
 WILEY INTERDISCIPLINARY REVIEWS-COMPUTATIONAL MOLECULAR SCIENCE, 4 (1), 15-25 (2014). 
 CP2K: atomistic simulations of condensed matter systems.
 http://dx.doi.org/10.1002/wcms.1159


 Laino, T; Mohamed, F; Laio, A; Parrinello, M. 
 JOURNAL OF CHEMICAL THEORY AND COMPUTATION, 1 (6), 1176-1184 (2005). 
 An efficient real space multigrid QM/MM electrostatic coupling.
 http://dx.doi.org/10.1021/ct050123f


 Krack, M. 
 THEORETICAL CHEMISTRY ACCOUNTS, 114 (1-3), 145-152 (2005). 
 Pseudopotentials for H to Kr optimized for gradient-corrected
 exchange-correlation functionals.
 http://dx.doi.org/10.1007/s00214-005-0655-y


 VandeVondele, J; Krack, M; Mohamed, F; Parrinello, M; Chassaing, T;
 Hutter, J. COMPUTER PHYSICS COMMUNICATIONS, 167 (2), 103-128 (2005). 
 QUICKSTEP: Fast and accurate density functional calculations using a
 mixed Gaussian and plane waves approach.
 http://dx.doi.org/10.1016/j.cpc.2004.12.014


 Frigo, M; Johnson, SG. 
 PROCEEDINGS OF THE IEEE, 93 (2), 216-231 (2005). 
 The design and implementation of FFTW3.
 http://dx.doi.org/10.1109/JPROC.2004.840301


 Kolafa, J. 
 JOURNAL OF COMPUTATIONAL CHEMISTRY, 25 (3), 335-342 (2004). 
 Time-reversible always stable predictor-corrector method for molecular dynamics of polarizable molecules.
 http://dx.doi.org/10.1002/jcc.10385


 VandeVondele, J; Hutter, J. 
 JOURNAL OF CHEMICAL PHYSICS, 118 (10), 4365-4369 (2003). 
 An efficient orbital transformation method for electronic structure
 calculations.
 http://dx.doi.org/10.1063/1.1543154


 Hartwigsen, C; Goedecker, S; Hutter, J. 
 PHYSICAL REVIEW B, 58 (7), 3641-3662 (1998). 
 Relativistic separable dual-space Gaussian pseudopotentials from H to Rn.
 http://dx.doi.org/10.1103/PhysRevB.58.3641


 Lippert, G; Hutter, J; Parrinello, M. 
 MOLECULAR PHYSICS, 92 (3), 477-487 (1997). 
 A hybrid Gaussian and plane wave density functional scheme.
 http://dx.doi.org/10.1080/002689797170220


 Goedecker, S; Teter, M; Hutter, J. 
 PHYSICAL REVIEW B, 54 (3), 1703-1710 (1996). 
 Separable dual-space Gaussian pseudopotentials.
 http://dx.doi.org/10.1103/PhysRevB.54.1703


 ESSMANN, U; PERERA, L; BERKOWITZ, ML; DARDEN, T; LEE, H; PEDERSEN, LG. 
 JOURNAL OF CHEMICAL PHYSICS, 103 (19), 8577-8593 (1995). 
 A SMOOTH PARTICLE MESH EWALD METHOD.
 http://dx.doi.org/10.1063/1.470117


 BECKE, AD. PHYSICAL REVIEW A, 38 (6), 3098-3100 (1988). 
 DENSITY-FUNCTIONAL EXCHANGE-ENERGY APPROXIMATION WITH CORRECT
 ASYMPTOTIC-BEHAVIOR.
 http://dx.doi.org/10.1103/PhysRevA.38.3098


 LEE, CT; YANG, WT; PARR, RG. 
 PHYSICAL REVIEW B, 37 (2), 785-789 (1988). 
 DEVELOPMENT OF THE COLLE-SALVETTI CORRELATION-ENERGY FORMULA INTO A
 FUNCTIONAL OF THE ELECTRON-DENSITY.
 http://dx.doi.org/10.1103/PhysRevB.37.785


 NOSE, S. JOURNAL OF CHEMICAL PHYSICS, 81 (1), 511-519 (1984). 
 A UNIFIED FORMULATION OF THE CONSTANT TEMPERATURE MOLECULAR-DYNAMICS
 METHODS.
 http://dx.doi.org/10.1063/1.447334


 NOSE, S. MOLECULAR PHYSICS, 52 (2), 255-268 (1984). 
 A MOLECULAR-DYNAMICS METHOD FOR SIMULATIONS IN THE CANONICAL ENSEMBLE.
 http://dx.doi.org/10.1080/00268978400101201


 -------------------------------------------------------------------------------
 -                                                                             -
 -                                T I M I N G                                  -
 -                                                                             -
 -------------------------------------------------------------------------------
 SUBROUTINE                       CALLS  ASD         SELF TIME        TOTAL TIME
                                MAXIMUM       AVERAGE  MAXIMUM  AVERAGE  MAXIMUM
 CP2K                                 1  1.0    0.973    1.099 3349.198 3349.308
 qs_mol_dyn_low                       1  2.0    0.007    0.010 3337.656 3338.067
 velocity_verlet                     40  3.0    0.091    0.097 3171.952 3172.059
 qs_forces                           41  4.0    0.004    0.005 1491.571 1491.624
 qs_energies                         41  5.0    0.002    0.002 1402.342 1402.391
 scf_env_do_scf                      41  6.0    0.002    0.008 1364.728 1364.773
 scf_env_do_scf_inner_loop          509  6.9    0.015    0.042 1275.650 1275.693
 rebuild_ks_matrix                  550  8.7    0.002    0.002 1137.605 1137.799
 qs_ks_build_kohn_sham_matrix       550  9.7    0.096    0.107 1137.603 1137.798
 pw_transfer                      10901 12.2    0.858    1.274 1073.977 1077.977
 fft_wrap_pw1pw2                   9596 13.3    0.132    0.177 1062.227 1066.069
 qs_ks_update_qs_env                551  7.9    0.004    0.005 1048.647 1048.823
 fft_wrap_pw1pw2_150               6132 14.5   79.201   85.659 1034.373 1038.385
 qmmm_forces                         41  4.0    0.318    0.348  974.954  974.987
 qmmm_forces_with_gaussian           41  5.0    0.669    0.830  954.189  966.268
 qmmm_el_coupling                    41  4.0    0.002    0.003  854.877  864.328
 qmmm_elec_with_gaussian             41  5.0    0.304    0.411  854.724  864.161
 fft3d_ps                          9596 15.3  408.926  418.539  830.231  838.963
 pw_restrict_s3                     123  6.0  643.289  660.273  821.319  833.980
 qs_vxc_create                      550 10.7    0.017    0.020  775.229  775.557
 xc_vxc_pw_create                   550 11.7   11.805   14.558  775.213  775.538
 qmmm_elec_with_gaussian:spline      41  6.0    0.000    0.001  701.504  711.013
 pw_prolongate_s3                   123  7.0  544.248  557.017  701.504  711.012
 xc_rho_set_and_dset_create         550 12.7    9.856   11.993  342.344  353.707
 mp_alltoall_z22v                  9596 17.3  310.237  326.139  310.237  326.139
 qs_rho_update_rho                  550  8.0    0.003    0.003  310.851  310.871
 calculate_rho_elec                 550  9.0    2.366   11.318  310.849  310.869
 density_rs2pw                      550 10.0    0.051    0.061  293.418  296.360
 x_to_yz                           5114 16.7   69.570   77.567  234.596  240.204
 sum_up_and_integrate               550 10.7    2.488    2.815  212.683  212.859
 integrate_v_rspace                 550 11.7    0.812    5.715  210.195  210.643
 potential_pw2rs                    550 12.7    0.115    0.126  202.856  204.157
 yz_to_x                           4482 15.9   41.161   45.029  186.373  193.168
 rs_pw_transfer                    4646 12.1    0.078    0.108  184.842  187.490
 mp_sum_dm3                         205  6.0  142.598  143.247  142.598  143.247
 pw_zero                          14326  7.5  134.013  140.456  134.013  140.456
 pw_axpy                          12600  8.9  125.371  131.334  125.371  131.334
 pw_scatter_p                      5114 15.7   87.409   90.607   87.409   90.607
 qs_ks_update_qs_env_forces          41  5.0    0.000    0.000   89.011   89.032
 init_scf_loop                       42  7.0    0.001    0.001   88.958   88.961
 add_coarse2fine                    123  8.0   66.237   67.328   66.238   67.330
 -------------------------------------------------------------------------------

 The number of warnings for this run is : 1
 
 -------------------------------------------------------------------------------
  **** **** ******  **  PROGRAM ENDED AT                 2019-03-15 19:22:42.850
 ***** ** ***  *** **   PROGRAM RAN ON                                  nid02031
 **    ****   ******    PROGRAM RAN BY                                  fionabio
 ***** **    ** ** **   PROGRAM PROCESS ID                                 27128
  **** **  *******  **  PROGRAM STOPPED IN /fs3/d118/d118/fionabio/BioExcel2/cp2
                                           k_benchmarks/QMMM/MM/4_nodes/test-1
Application 33918546 resources: utime ~296936s, stime ~25032s, Rss ~1942488, inblocks ~4538695, outblocks ~5269279
