CrayPat/X:  Version 6.4.6 Revision 7d0d87c  02/20/17 09:52:37
 *******************************************************************************
 *                            RESTART INFORMATION                              *
 *******************************************************************************
 *                                                                             *
 *    RESTART FILE NAME: NPT-1_5000.restart                                    *
 *                                                                             *
 * RESTARTED QUANTITIES:                                                       *
 *                       CELL                                                  *
 *                       COORDINATES                                           *
 *                       RANDOM NUMBER GENERATOR                               *
 *                       VELOCITIES                                            *
 *                       MD AVERAGES                                           *
 *                       REAL TIME PROPAGATION                                 *
 *                       PINT BEAD POSITIONS                                   *
 *                       PINT BEAD VELOCITIES                                  *
 *                       PINT NOSE THERMOSTAT                                  *
 *                       PINT GLE THERMOSTAT                                   *
 *                       HELIUM BEAD POSITIONS                                 *
 *                       HELIUM PERMUTATION STATE                              *
 *                       HELIUM FORCES ON SOLUTE                               *
 *                       HELIUM RNG STATE                                      *
 *******************************************************************************

 DBCSR| Multiplication driver                                               XSMM
 DBCSR| Multrec recursion limit                                              512
 DBCSR| Multiplication stack size                                           1000
 DBCSR| Maximum elements for images                                    UNLIMITED
 DBCSR| Multiplicative factor virtual images                                   1
 DBCSR| Multiplication size stacks                                             3
 DBCSR| Number of 3D layers                                               SINGLE
 DBCSR| Use MPI memory allocation                                              T
 DBCSR| Use RMA algorithm                                                      F
 DBCSR| Use Communication thread                                               T
 DBCSR| Communication thread load                                             87


  **** **** ******  **  PROGRAM STARTED AT               2019-03-06 11:13:33.715
 ***** ** ***  *** **   PROGRAM STARTED ON                              nid04762
 **    ****   ******    PROGRAM STARTED BY                              fionabio
 ***** **    ** ** **   PROGRAM PROCESS ID                                 48365
  **** **  *******  **  PROGRAM STARTED IN /fs3/d118/d118/fionabio/BioExcel2/cp2
                                           k_benchmarks/QMMM/MM/2_nodes/test-1

 CP2K| version string:                                          CP2K version 6.1
 CP2K| source code revision number:                                    svn:18464
 CP2K| cp2kflags: omp libint fftw3 libxc elpa=201605 elpa_qr parallel mpi3 scala
 CP2K|            pack xsmm libgrid has_no_shared_glibc max_contr=4 statm_resident plumed2
 CP2K| is freely available from                            https://www.cp2k.org/
 CP2K| Program compiled at                          Fri Feb 15 14:30:53 GMT 2019
 CP2K| Program compiled on                                            eslogin007
 CP2K| Program compiled for                                       ARCHER_craypat
 CP2K| Data directory path                     /work/y07/y07/cp2k/6.1.18464/data
 CP2K| Input file name                                                  qmmm.inp

 GLOBAL| Force Environment number                                              1
 GLOBAL| Basis set file name                                           BASIS_SET
 GLOBAL| Potential file name                                           POTENTIAL
 GLOBAL| MM Potential file name                                     MM_POTENTIAL
 GLOBAL| Coordinate file name                                      __STD_INPUT__
 GLOBAL| Method name                                                        CP2K
 GLOBAL| Project name                                                       QMMM
 GLOBAL| Preferred FFT library                                             FFTW3
 GLOBAL| Preferred diagonalization lib.                                       SL
 GLOBAL| Run type                                                             MD
 GLOBAL| All-to-all communication in single precision                          F
 GLOBAL| FFTs using library dependent lengths                                  F
 GLOBAL| Global print level                                                  LOW
 GLOBAL| Total number of message passing processes                            48
 GLOBAL| Number of threads for this process                                    1
 GLOBAL| This output is from process                                           0
 GLOBAL| CPU model name :  Intel(R) Xeon(R) CPU E5-2697 v2 @ 2.70GHz

 MEMORY| system memory details [Kb]
 MEMORY|                        rank 0           min           max       average
 MEMORY| MemTotal             66072152      66072152      66072152      66072152
 MEMORY| MemFree              60945960      60945960      60952400      60949180
 MEMORY| Buffers                     0             0             0             0
 MEMORY| Cached                 284836        279956        284836        282396
 MEMORY| Slab                   272784        272760        272784        272772
 MEMORY| SReclaimable             8704          8704          8960          8832
 MEMORY| MemLikelyFree        61239500      61239500      61241316      61240408



                      ************* ******** ***********   
                     ************* **********************  
                     ****     **** ****      ***********   
                     ******** ****  *******     ****       
                     *******  ****   *******   ****        
                     ****     ****       ****  ****        
                     ****     **** **********  ****        
                      ****     **** ********    ****       
                     FRONTIERS IN SIMULATION TECHNOLOGY    
                                                           
                        C.J. Mundy, S. Balasubramanian,    
                     Ken Bagchi, J. Hutter, Ari Seitsonen  
                      IFW Kuo, T. Laino, J. VandeVondele   
                                 Version 1.0               

                                                           


 EWALD| Summation is done by:                                               SPME
 EWALD| Alpha parameter [       ANGSTROM^-1]                              0.4000
 EWALD| Real Space Cutoff [          ANGSTROM]                            8.4348
 EWALD| G-space max. Miller index                         80        80        80
 EWALD| Spline interpolation order                                             6

 FORCEFIELD| WARNING: A non Critical ForceField parameter is missing! CP2K GOES!
 FORCEFIELD| Non critical parameters are:Urey-Bradley,Torsions,Impropers, Opbends and 1-4
 FORCEFIELD| All missing parameters will not contribute to the potential energy!
 FORCEFIELD| Activate the print key FF_INFO to have a list of missing parameters

 CHARGE_INFO| Total Charge of the Classical System:                     0.000000

 SPLINE_INFO| Generating 56953 splines for NONBONDED14 interactions 
              Due to 337 different atomic kinds
  ...5695  ...11390  ...17085  ...22780  ...28475  ...34170  ...39865  ...45560  ...51255  ...56950
 SPLINE_INFO| Number of unique splines computed:            137
 SPLINE_INFO| Done

 SPLINE_INFO| Generating 56953 splines for NONBONDED interactions 
              Due to 337 different atomic kinds
  ...5695  ...11390  ...17085  ...22780  ...28475  ...34170  ...39865  ...45560  ...51255  ...56950
 SPLINE_INFO| Number of unique splines computed:            137
 SPLINE_INFO| Done

 *******************************************************************************
 *******************************************************************************
 **                                                                           **
 **     #####                         ##              ##                      **
 **    ##   ##            ##          ##              ##                      **
 **   ##     ##                       ##            ######                    **
 **   ##     ##  ##   ##  ##   #####  ##  ##   ####   ##    #####    #####    **
 **   ##     ##  ##   ##  ##  ##      ## ##   ##      ##   ##   ##  ##   ##   **
 **   ##  ## ##  ##   ##  ##  ##      ####     ###    ##   ######   ######    **
 **    ##  ###   ##   ##  ##  ##      ## ##      ##   ##   ##       ##        **
 **     #######   #####   ##   #####  ##  ##  ####    ##    #####   ##        **
 **           ##                                                    ##        **
 **                                                                           **
 **                                                ... make the atoms dance   **
 **                                                                           **
 **            Copyright (C) by CP2K developers group (2000 - 2018)           **
 **                                                                           **
 *******************************************************************************


 TOTAL NUMBERS AND MAXIMUM NUMBERS

  Total number of            - Atomic kinds:                                   5
                             - Atoms:                                         22
                             - Shell sets:                                    44
                             - Shells:                                        94
                             - Primitive Cartesian functions:                110
                             - Cartesian basis functions:                    236
                             - Spherical basis functions:                    222

  Maximum angular momentum of- Orbital basis functions:                        2
                             - Local part of the GTH pseudopotential:          2
                             - Non-local part of the GTH pseudopotential:      0


 SCF PARAMETERS         Density guess:                                    ATOMIC
                        --------------------------------------------------------
                        max_scf:                                              30
                        max_scf_history:                                       0
                        max_diis:                                              4
                        --------------------------------------------------------
                        eps_scf:                                        1.00E-06
                        eps_scf_history:                                0.00E+00
                        eps_diis:                                       1.00E-01
                        eps_eigval:                                     1.00E-05
                        --------------------------------------------------------
                        level_shift [a.u.]:                                 0.00
                        --------------------------------------------------------
                        Outer loop SCF in use 
                        No variables optimised in outer loop
                        eps_scf                                         1.00E-06
                        max_scf                                               10
                        No outer loop optimization
                        step_size                                       5.00E-01

 *******************************************************************************
 *******************************************************************************
 **                                                                           **
 **             #######  ##     ## ##     ## ##     ##                        **
 **            ##     ## ###   ### ###   ### ###   ###                        **
 **            ##     ## #### #### #### #### #### ####                        **
 **            ##     ## ## ### ## ## ### ## ## ### ##                        **
 **            ##  ## ## ##     ## ##     ## ##     ##                        **
 **            ##    ##  ##     ## ##     ## ##     ##  T.Laino and F.Mohamed **
 **             ##### ## ##     ## ##     ## ##     ##  2005 - 2015           **
 **                                                                           **
 **                                                     Calculation Started.. **
 *******************************************************************************
 *******************************************************************************

 MD| Molecular Dynamics Protocol 
 MD| Ensemble Type                                                           NVT
 MD| Number of Time Steps                                                      5
 MD| Time Step [fs]                                                         1.00
 MD| Temperature [K]                                                      298.00
 MD| Temperature tolerance [K]                                              0.00
 MD| Print MD information every                                        1 step(s)
 MD| File type     Print frequency[steps]                             File names
 MD| Coordinates          100                                     QMMM-pos-1.xyz
 MD| Velocities             1                                     QMMM-vel-1.xyz
 MD| Energies               1                                        QMMM-1.ener
 MD| Dump                1000                                     QMMM-1.restart

 ROT| Rotational Analysis Info 
 ROT| Principal axes and moments of inertia in atomic units:
 ROT|                                1                 2                 3
 ROT| EIGENVALUES            0.783752064E+12   0.946041841E+12   0.987014226E+12
 ROT|      X                    -0.999672383      -0.015945217       0.020021921
 ROT|      Y                    -0.017525004       0.996529037      -0.081380298
 ROT|      Z                     0.018654799       0.081704521       0.996481997
 ROT| Numer of Rotovibrational vectors:     6

 Calculation of degrees of freedom
                                                      Number of atoms:     30928
                                 Number of Intramolecular constraints:         0
                                 Number of Intermolecular constraints:         0
                                  Invariants(translation + rotations):         3
                                                   Degrees of freedom:     92781


 Restraints Information
                                  Number of Intramolecular restraints:         0
                                  Number of Intermolecular restraints:         0

 THERMOSTAT| Thermostat Info for PARTICLES
 THERMOSTAT| Type of thermostat                               Nose-Hoover-Chains
 THERMOSTAT| Nose-Hoover-Chain length                                          3
 THERMOSTAT| Nose-Hoover-Chain time constant [  fs]                       100.00
 THERMOSTAT| Order of Yoshida integrator                                       3
 THERMOSTAT| Number of multiple time steps                                     2
 THERMOSTAT| Initial Potential Energy                                   0.000000
 THERMOSTAT| Initial Kinetic Energy                                     0.000472
 THERMOSTAT| End of Thermostat Info for PARTICLES

 ************************** Velocities initialization **************************
 Initial Temperature                                                    299.40 K
 COM velocity:            0.000000000000      0.000000000000     -0.000000000000
 *******************************************************************************


  Translating the system in order to center the QM fragment in the QM box.

 Number of electrons:                                                         70
 Number of occupied orbitals:                                                 35
 Number of molecular orbitals:                                                35

 Number of orbital functions:                                                222
 Number of independent orbital functions:                                    222

 Extrapolation method: initial_guess


 SCF WAVEFUNCTION OPTIMIZATION

  ----------------------------------- OT ---------------------------------------
  Minimizer      : DIIS                : direct inversion
                                         in the iterative subspace
                                         using   7 DIIS vectors
                                         safer DIIS on
  Preconditioner : FULL_SINGLE_INVERSE : inversion of 
                                         H + eS - 2*(Sc)(c^T*H*c+const)(Sc)^T
  Precond_solver : DEFAULT
  stepsize       :    0.08000000                  energy_gap     :    0.08000000
  eps_taylor     :   0.10000E-15                  max_taylor     :             4
  ----------------------------------- OT ---------------------------------------

  Step     Update method      Time    Convergence         Total energy    Change
  ------------------------------------------------------------------------------
     1 OT DIIS     0.80E-01    4.1     0.09329988      -108.0952724262 -1.08E+02
     2 OT DIIS     0.80E-01    4.9     0.06536893      -111.6363047228 -3.54E+00
     3 OT DIIS     0.80E-01    4.9     0.04290678      -113.1681812583 -1.53E+00
     4 OT DIIS     0.80E-01    4.9     0.02833519      -114.3133057584 -1.15E+00
     5 OT DIIS     0.80E-01    4.9     0.01818393      -114.6001423277 -2.87E-01
     6 OT DIIS     0.80E-01    4.9     0.01230835      -114.8486082530 -2.48E-01
     7 OT DIIS     0.80E-01    5.0     0.00787224      -114.9377900595 -8.92E-02
     8 OT DIIS     0.80E-01    4.9     0.00523739      -114.9888305500 -5.10E-02
     9 OT DIIS     0.80E-01    5.0     0.00372689      -115.0169117427 -2.81E-02
    10 OT DIIS     0.80E-01    4.9     0.00272520      -115.0331860290 -1.63E-02
    11 OT DIIS     0.80E-01    4.9     0.00194499      -115.0415206877 -8.33E-03
    12 OT DIIS     0.80E-01    4.9     0.00142275      -115.0465877879 -5.07E-03
    13 OT DIIS     0.80E-01    4.9     0.00114142      -115.0496410179 -3.05E-03
    14 OT DIIS     0.80E-01    4.9     0.00092933      -115.0513788758 -1.74E-03
    15 OT DIIS     0.80E-01    5.0     0.00076838      -115.0528256357 -1.45E-03
    16 OT DIIS     0.80E-01    4.9     0.00066158      -115.0538076170 -9.82E-04
    17 OT DIIS     0.80E-01    4.9     0.00057756      -115.0545612000 -7.54E-04
    18 OT DIIS     0.80E-01    4.9     0.00051171      -115.0552317461 -6.71E-04
    19 OT DIIS     0.80E-01    4.9     0.00045778      -115.0557975364 -5.66E-04
    20 OT DIIS     0.80E-01    5.0     0.00039297      -115.0563685147 -5.71E-04
    21 OT DIIS     0.80E-01    5.0     0.00034178      -115.0568053999 -4.37E-04
    22 OT DIIS     0.80E-01    4.9     0.00029181      -115.0571573507 -3.52E-04
    23 OT DIIS     0.80E-01    5.0     0.00024127      -115.0574118833 -2.55E-04
    24 OT DIIS     0.80E-01    4.9     0.00019963      -115.0575813769 -1.69E-04
    25 OT DIIS     0.80E-01    4.9     0.00016168      -115.0576849281 -1.04E-04
    26 OT DIIS     0.80E-01    5.0     0.00013086      -115.0577525244 -6.76E-05
    27 OT DIIS     0.80E-01    4.9     0.00010971      -115.0577861417 -3.36E-05
    28 OT DIIS     0.80E-01    4.9     0.00009005      -115.0578090012 -2.29E-05
    29 OT DIIS     0.80E-01    5.0     0.00007659      -115.0578235406 -1.45E-05
    30 OT DIIS     0.80E-01    4.9     0.00006594      -115.0578328087 -9.27E-06

  Leaving inner SCF loop after reaching    30 steps.


  Electronic density on regular grids:        -69.9999999948        0.0000000052
  Core density on regular grids:               69.9999999957       -0.0000000043
  Total charge density on r-space grids:        0.0000000009
  Total charge density g-space grids:           0.0000000009

  Overlap energy of the core charge distribution:               0.00000607847608
  Self energy of the core charge distribution:               -278.09582761455005
  Core Hamiltonian energy:                                     84.62163968032598
  Hartree energy:                                             112.36092013927343
  Exchange-correlation energy:                                -31.95866797917093
  QM/MM Electrostatic energy:                                  -1.98590311306289

  Total energy:                                              -115.05783280870837

  outer SCF iter =    1 RMS gradient =   0.66E-04 energy =       -115.0578328087

  ----------------------------------- OT ---------------------------------------
  Minimizer      : DIIS                : direct inversion
                                         in the iterative subspace
                                         using   7 DIIS vectors
                                         safer DIIS on
  Preconditioner : FULL_SINGLE_INVERSE : inversion of 
                                         H + eS - 2*(Sc)(c^T*H*c+const)(Sc)^T
  Precond_solver : DEFAULT
  stepsize       :    0.08000000                  energy_gap     :    0.08000000
  eps_taylor     :   0.10000E-15                  max_taylor     :             4
  ----------------------------------- OT ---------------------------------------

  Step     Update method      Time    Convergence         Total energy    Change
  ------------------------------------------------------------------------------
     1 OT DIIS     0.80E-01    9.9     0.00016332      -115.0578389702 -6.16E-06
     2 OT DIIS     0.80E-01    4.9     0.00011102      -115.0578519313 -1.30E-05
     3 OT DIIS     0.80E-01    4.9     0.00012615      -115.0578578800 -5.95E-06
     4 OT DIIS     0.80E-01    4.9     0.00006132      -115.0578619521 -4.07E-06
     5 OT DIIS     0.80E-01    4.9     0.00003690      -115.0578631312 -1.18E-06
     6 OT DIIS     0.80E-01    4.9     0.00002163      -115.0578635547 -4.23E-07
     7 OT DIIS     0.80E-01    4.9     0.00001272      -115.0578637033 -1.49E-07
     8 OT DIIS     0.80E-01    4.9     0.00000643      -115.0578637421 -3.88E-08
     9 OT DIIS     0.80E-01    4.9     0.00000390      -115.0578637511 -9.01E-09
    10 OT DIIS     0.80E-01    4.9     0.00000199      -115.0578637544 -3.31E-09
    11 OT DIIS     0.80E-01    4.9     0.00000136      -115.0578637559 -1.50E-09
    12 OT DIIS     0.80E-01    4.9     0.00000139      -115.0578637562 -3.34E-10
    13 OT DIIS     0.80E-01    4.9     0.00000073      -115.0578637564 -2.23E-10

  *** SCF run converged in    13 steps ***


  Electronic density on regular grids:        -69.9999999948        0.0000000052
  Core density on regular grids:               69.9999999957       -0.0000000043
  Total charge density on r-space grids:        0.0000000009
  Total charge density g-space grids:           0.0000000009

  Overlap energy of the core charge distribution:               0.00000607847608
  Self energy of the core charge distribution:               -278.09582761455005
  Core Hamiltonian energy:                                     84.62090578890010
  Hartree energy:                                             112.36149196448352
  Exchange-correlation energy:                                -31.95841753534201
  QM/MM Electrostatic energy:                                  -1.98602243840301

  Total energy:                                              -115.05786375643537

  outer SCF iter =    2 RMS gradient =   0.73E-06 energy =       -115.0578637564
  outer SCF loop converged in   2 iterations or   43 steps


 ENERGY| Total FORCE_EVAL ( QMMM ) energy (a.u.):           -253.053219646492039


 MD_ENERGIES| Initialization proceeding


 ******************************** GO CP2K GO! **********************************
 INITIAL POTENTIAL ENERGY[hartree]     =                     -0.253053219646E+03
 TOTAL INITIAL KINETIC ENERGY[hartree] =                      0.439844103254E+02
 QM INITIAL KINETIC ENERGY[hartree]    =                      0.350675982115E-01
 TOTAL INITIAL TEMPERATURE[K]          =                                 299.397
 QM INITIAL TEMPERATURE[K]             =                                 335.559
 INITIAL VOLUME[bohr^3]                =                      0.218187828648E+07
 INITIAL CELL LNTHS[bohr]   =      0.1449600E+03   0.1268275E+03   0.1186776E+03
 INITIAL CELL ANGLS[deg]    =      0.9000000E+02   0.9000000E+02   0.9000000E+02
 ******************************** GO CP2K GO! **********************************

  Translating the system in order to center the QM fragment in the QM box.

 Number of electrons:                                                         70
 Number of occupied orbitals:                                                 35
 Number of molecular orbitals:                                                35

 Number of orbital functions:                                                222
 Number of independent orbital functions:                                    222

 Extrapolation method: ASPC


 SCF WAVEFUNCTION OPTIMIZATION

  ----------------------------------- OT ---------------------------------------
  Minimizer      : DIIS                : direct inversion
                                         in the iterative subspace
                                         using   7 DIIS vectors
                                         safer DIIS on
  Preconditioner : FULL_SINGLE_INVERSE : inversion of 
                                         H + eS - 2*(Sc)(c^T*H*c+const)(Sc)^T
  Precond_solver : DEFAULT
  stepsize       :    0.08000000                  energy_gap     :    0.08000000
  eps_taylor     :   0.10000E-15                  max_taylor     :             4
  ----------------------------------- OT ---------------------------------------

  Step     Update method      Time    Convergence         Total energy    Change
  ------------------------------------------------------------------------------
     1 OT DIIS     0.80E-01    4.0     0.00133217      -115.1405570367 -1.15E+02
     2 OT DIIS     0.80E-01    4.9     0.00075553      -115.1412651186 -7.08E-04
     3 OT DIIS     0.80E-01    4.9     0.00066324      -115.1414475105 -1.82E-04
     4 OT DIIS     0.80E-01    4.9     0.00055435      -115.1415409999 -9.35E-05
     5 OT DIIS     0.80E-01    4.9     0.00021491      -115.1415887319 -4.77E-05
     6 OT DIIS     0.80E-01    4.9     0.00009071      -115.1415993703 -1.06E-05
     7 OT DIIS     0.80E-01    4.9     0.00005020      -115.1416021807 -2.81E-06
     8 OT DIIS     0.80E-01    4.9     0.00003357      -115.1416027562 -5.75E-07
     9 OT DIIS     0.80E-01    4.9     0.00002039      -115.1416029466 -1.90E-07
    10 OT DIIS     0.80E-01    4.9     0.00000889      -115.1416030180 -7.14E-08
    11 OT DIIS     0.80E-01    4.9     0.00000519      -115.1416030389 -2.10E-08
    12 OT DIIS     0.80E-01    4.9     0.00000465      -115.1416030449 -5.94E-09
    13 OT DIIS     0.80E-01    4.9     0.00000338      -115.1416030475 -2.64E-09
    14 OT DIIS     0.80E-01    4.9     0.00000152      -115.1416030492 -1.71E-09
    15 OT DIIS     0.80E-01    4.9     0.00000084      -115.1416030498 -5.55E-10

  *** SCF run converged in    15 steps ***


  Electronic density on regular grids:        -69.9999999990        0.0000000010
  Core density on regular grids:               69.9999999957       -0.0000000043
  Total charge density on r-space grids:       -0.0000000033
  Total charge density g-space grids:          -0.0000000033

  Overlap energy of the core charge distribution:               0.00000658232499
  Self energy of the core charge distribution:               -278.09582761455005
  Core Hamiltonian energy:                                     84.63577155751202
  Hartree energy:                                             112.35370339616998
  Exchange-correlation energy:                                -31.96443455399065
  QM/MM Electrostatic energy:                                  -2.07082241723611

  Total energy:                                              -115.14160304976983

  outer SCF iter =    1 RMS gradient =   0.84E-06 energy =       -115.1416030498
  outer SCF loop converged in   1 iterations or   15 steps


 ENERGY| Total FORCE_EVAL ( QMMM ) energy (a.u.):           -252.908036765935549


 *******************************************************************************
 ENSEMBLE TYPE                =                                              NVT
 STEP NUMBER                  =                                                1
 TIME [fs]                    =                                         1.000000
 CONSERVED QUANTITY [hartree] =                              -0.209034371586E+03

                                              INSTANTANEOUS             AVERAGES
 CPU TIME [s]                 =                      393.58               393.58
 ENERGY DRIFT PER ATOM [K]    =          0.346791377902E+00   0.000000000000E+00
 POTENTIAL ENERGY[hartree]    =         -0.252908036766E+03  -0.252908036766E+03
 TOTAL KINETIC ENERGY[hartree]=          0.438702913439E+02   0.438702913439E+02
 QM KINETIC ENERGY[hartree]   =          0.345760913909E-01   0.345760913909E-01
 TOTAL TEMPERATURE[K]         =                     298.620              298.620
 QM TEMPERATURE[K]            =                     330.856              330.856
 *******************************************************************************


  Translating the system in order to center the QM fragment in the QM box.

 Number of electrons:                                                         70
 Number of occupied orbitals:                                                 35
 Number of molecular orbitals:                                                35

 Number of orbital functions:                                                222
 Number of independent orbital functions:                                    222

 Extrapolation method: ASPC


 SCF WAVEFUNCTION OPTIMIZATION

  ----------------------------------- OT ---------------------------------------
  Minimizer      : DIIS                : direct inversion
                                         in the iterative subspace
                                         using   7 DIIS vectors
                                         safer DIIS on
  Preconditioner : FULL_SINGLE_INVERSE : inversion of 
                                         H + eS - 2*(Sc)(c^T*H*c+const)(Sc)^T
  Precond_solver : DEFAULT
  stepsize       :    0.08000000                  energy_gap     :    0.08000000
  eps_taylor     :   0.10000E-15                  max_taylor     :             4
  ----------------------------------- OT ---------------------------------------

  Step     Update method      Time    Convergence         Total energy    Change
  ------------------------------------------------------------------------------
     1 OT DIIS     0.80E-01    4.0     0.00090529      -115.1980528564 -1.15E+02
     2 OT DIIS     0.80E-01    4.9     0.00050825      -115.1983563566 -3.04E-04
     3 OT DIIS     0.80E-01    4.9     0.00037309      -115.1984276107 -7.13E-05
     4 OT DIIS     0.80E-01    4.9     0.00017799      -115.1984714017 -4.38E-05
     5 OT DIIS     0.80E-01    4.9     0.00010391      -115.1984821777 -1.08E-05
     6 OT DIIS     0.80E-01    4.9     0.00008267      -115.1984841673 -1.99E-06
     7 OT DIIS     0.80E-01    4.9     0.00003133      -115.1984853777 -1.21E-06
     8 OT DIIS     0.80E-01    4.9     0.00001455      -115.1984856494 -2.72E-07
     9 OT DIIS     0.80E-01    4.9     0.00000835      -115.1984857139 -6.46E-08
    10 OT DIIS     0.80E-01    4.9     0.00000595      -115.1984857287 -1.48E-08
    11 OT DIIS     0.80E-01    4.9     0.00000338      -115.1984857366 -7.95E-09
    12 OT DIIS     0.80E-01    4.9     0.00000220      -115.1984857389 -2.29E-09
    13 OT DIIS     0.80E-01    4.9     0.00000129      -115.1984857400 -1.06E-09
    14 OT DIIS     0.80E-01    4.9     0.00000116      -115.1984857404 -4.03E-10
    15 OT DIIS     0.80E-01    4.9     0.00000072      -115.1984857406 -1.92E-10

  *** SCF run converged in    15 steps ***


  Electronic density on regular grids:        -70.0000000028       -0.0000000028
  Core density on regular grids:               69.9999999957       -0.0000000043
  Total charge density on r-space grids:       -0.0000000071
  Total charge density g-space grids:          -0.0000000071

  Overlap energy of the core charge distribution:               0.00000515643383
  Self energy of the core charge distribution:               -278.09582761455005
  Core Hamiltonian energy:                                     84.57410849716484
  Hartree energy:                                             112.39271086210266
  Exchange-correlation energy:                                -31.94617527396208
  QM/MM Electrostatic energy:                                  -2.12330736777259

  Total energy:                                              -115.19848574058339

  outer SCF iter =    1 RMS gradient =   0.72E-06 energy =       -115.1984857406
  outer SCF loop converged in   1 iterations or   15 steps


 ENERGY| Total FORCE_EVAL ( QMMM ) energy (a.u.):           -253.047482488136637


 *******************************************************************************
 ENSEMBLE TYPE                =                                              NVT
 STEP NUMBER                  =                                                2
 TIME [fs]                    =                                         2.000000
 CONSERVED QUANTITY [hartree] =                              -0.209059276818E+03

                                              INSTANTANEOUS             AVERAGES
 CPU TIME [s]                 =                      126.96               260.27
 ENERGY DRIFT PER ATOM [K]    =          0.925091412868E-01   0.462545706434E-01
 POTENTIAL ENERGY[hartree]    =         -0.253047482488E+03  -0.252977759627E+03
 TOTAL KINETIC ENERGY[hartree]=          0.439819059273E+02   0.439260986356E+02
 QM KINETIC ENERGY[hartree]   =          0.383698960292E-01   0.364729937100E-01
 TOTAL TEMPERATURE[K]         =                     299.380              299.000
 QM TEMPERATURE[K]            =                     367.159              349.007
 *******************************************************************************


  Translating the system in order to center the QM fragment in the QM box.

 Number of electrons:                                                         70
 Number of occupied orbitals:                                                 35
 Number of molecular orbitals:                                                35

 Number of orbital functions:                                                222
 Number of independent orbital functions:                                    222

 Extrapolation method: ASPC


 SCF WAVEFUNCTION OPTIMIZATION

  ----------------------------------- OT ---------------------------------------
  Minimizer      : DIIS                : direct inversion
                                         in the iterative subspace
                                         using   7 DIIS vectors
                                         safer DIIS on
  Preconditioner : FULL_SINGLE_INVERSE : inversion of 
                                         H + eS - 2*(Sc)(c^T*H*c+const)(Sc)^T
  Precond_solver : DEFAULT
  stepsize       :    0.08000000                  energy_gap     :    0.08000000
  eps_taylor     :   0.10000E-15                  max_taylor     :             4
  ----------------------------------- OT ---------------------------------------

  Step     Update method      Time    Convergence         Total energy    Change
  ------------------------------------------------------------------------------
     1 OT DIIS     0.80E-01    4.0     0.00051129      -115.2187605272 -1.15E+02
     2 OT DIIS     0.80E-01    5.0     0.00037936      -115.2188256299 -6.51E-05
     3 OT DIIS     0.80E-01    4.9     0.00017298      -115.2188490108 -2.34E-05
     4 OT DIIS     0.80E-01    4.9     0.00007705      -115.2188586171 -9.61E-06
     5 OT DIIS     0.80E-01    4.9     0.00004888      -115.2188609792 -2.36E-06
     6 OT DIIS     0.80E-01    4.9     0.00003492      -115.2188616422 -6.63E-07
     7 OT DIIS     0.80E-01    4.9     0.00001850      -115.2188618817 -2.40E-07
     8 OT DIIS     0.80E-01    4.9     0.00000848      -115.2188619452 -6.35E-08
     9 OT DIIS     0.80E-01    4.9     0.00000466      -115.2188619636 -1.84E-08
    10 OT DIIS     0.80E-01    4.9     0.00000378      -115.2188619671 -3.45E-09
    11 OT DIIS     0.80E-01    4.9     0.00000172      -115.2188619698 -2.74E-09
    12 OT DIIS     0.80E-01    4.9     0.00000113      -115.2188619705 -6.26E-10
    13 OT DIIS     0.80E-01    4.9     0.00000058      -115.2188619708 -3.26E-10

  *** SCF run converged in    13 steps ***


  Electronic density on regular grids:        -70.0000000050       -0.0000000050
  Core density on regular grids:               69.9999999957       -0.0000000043
  Total charge density on r-space grids:       -0.0000000093
  Total charge density g-space grids:          -0.0000000093

  Overlap energy of the core charge distribution:               0.00000398004733
  Self energy of the core charge distribution:               -278.09582761455005
  Core Hamiltonian energy:                                     84.46655168836104
  Hartree energy:                                             112.46374832368127
  Exchange-correlation energy:                                -31.91286959743945
  QM/MM Electrostatic energy:                                  -2.14046875087840

  Total energy:                                              -115.21886197077825

  outer SCF iter =    1 RMS gradient =   0.58E-06 energy =       -115.2188619708
  outer SCF loop converged in   1 iterations or   13 steps


 ENERGY| Total FORCE_EVAL ( QMMM ) energy (a.u.):           -253.178573116979265


 *******************************************************************************
 ENSEMBLE TYPE                =                                              NVT
 STEP NUMBER                  =                                                3
 TIME [fs]                    =                                         3.000000
 CONSERVED QUANTITY [hartree] =                              -0.209067487501E+03

                                              INSTANTANEOUS             AVERAGES
 CPU TIME [s]                 =                      116.89               212.48
 ENERGY DRIFT PER ATOM [K]    =          0.867813085127E-02   0.337290907127E-01
 POTENTIAL ENERGY[hartree]    =         -0.253178573117E+03  -0.253044697457E+03
 TOTAL KINETIC ENERGY[hartree]=          0.441018112154E+02   0.439846694955E+02
 QM KINETIC ENERGY[hartree]   =          0.417644786321E-01   0.382368220174E-01
 TOTAL TEMPERATURE[K]         =                     300.196              299.398
 QM TEMPERATURE[K]            =                     399.641              365.885
 *******************************************************************************


  Translating the system in order to center the QM fragment in the QM box.

 Number of electrons:                                                         70
 Number of occupied orbitals:                                                 35
 Number of molecular orbitals:                                                35

 Number of orbital functions:                                                222
 Number of independent orbital functions:                                    222

 Extrapolation method: ASPC


 SCF WAVEFUNCTION OPTIMIZATION

  ----------------------------------- OT ---------------------------------------
  Minimizer      : DIIS                : direct inversion
                                         in the iterative subspace
                                         using   7 DIIS vectors
                                         safer DIIS on
  Preconditioner : FULL_SINGLE_INVERSE : inversion of 
                                         H + eS - 2*(Sc)(c^T*H*c+const)(Sc)^T
  Precond_solver : DEFAULT
  stepsize       :    0.08000000                  energy_gap     :    0.08000000
  eps_taylor     :   0.10000E-15                  max_taylor     :             4
  ----------------------------------- OT ---------------------------------------

  Step     Update method      Time    Convergence         Total energy    Change
  ------------------------------------------------------------------------------
     1 OT DIIS     0.80E-01    4.0     0.00090370      -115.2193626941 -1.15E+02
     2 OT DIIS     0.80E-01    4.9     0.00054240      -115.2195826853 -2.20E-04
     3 OT DIIS     0.80E-01    4.9     0.00026857      -115.2196363191 -5.36E-05
     4 OT DIIS     0.80E-01    4.9     0.00012010      -115.2196563089 -2.00E-05
     5 OT DIIS     0.80E-01    4.9     0.00006242      -115.2196614463 -5.14E-06
     6 OT DIIS     0.80E-01    4.9     0.00004734      -115.2196626162 -1.17E-06
     7 OT DIIS     0.80E-01    4.9     0.00001937      -115.2196631473 -5.31E-07
     8 OT DIIS     0.80E-01    4.9     0.00000985      -115.2196632516 -1.04E-07
     9 OT DIIS     0.80E-01    4.9     0.00000493      -115.2196632836 -3.20E-08
    10 OT DIIS     0.80E-01    4.9     0.00000432      -115.2196632888 -5.19E-09
    11 OT DIIS     0.80E-01    4.9     0.00000170      -115.2196632927 -3.97E-09
    12 OT DIIS     0.80E-01    4.9     0.00000099      -115.2196632934 -7.16E-10

  *** SCF run converged in    12 steps ***


  Electronic density on regular grids:        -70.0000000026       -0.0000000026
  Core density on regular grids:               69.9999999957       -0.0000000043
  Total charge density on r-space grids:       -0.0000000068
  Total charge density g-space grids:          -0.0000000068

  Overlap energy of the core charge distribution:               0.00000350876719
  Self energy of the core charge distribution:               -278.09582761455005
  Core Hamiltonian energy:                                     84.35684982660482
  Hartree energy:                                             112.53782870240019
  Exchange-correlation energy:                                -31.87835291214321
  QM/MM Electrostatic energy:                                  -2.14016480452816

  Total energy:                                              -115.21966329344923

  outer SCF iter =    1 RMS gradient =   0.99E-06 energy =       -115.2196632934
  outer SCF loop converged in   1 iterations or   12 steps


 ENERGY| Total FORCE_EVAL ( QMMM ) energy (a.u.):           -253.198568063517143


 *******************************************************************************
 ENSEMBLE TYPE                =                                              NVT
 STEP NUMBER                  =                                                4
 TIME [fs]                    =                                         4.000000
 CONSERVED QUANTITY [hartree] =                              -0.209040805047E+03

                                              INSTANTANEOUS             AVERAGES
 CPU TIME [s]                 =                      111.24               187.17
 ENERGY DRIFT PER ATOM [K]    =          0.281105784431E+00   0.955732641422E-01
 POTENTIAL ENERGY[hartree]    =         -0.253198568064E+03  -0.253083165109E+03
 TOTAL KINETIC ENERGY[hartree]=          0.441454453140E+02   0.440248634502E+02
 QM KINETIC ENERGY[hartree]   =          0.422238257388E-01   0.392335729477E-01
 TOTAL TEMPERATURE[K]         =                     300.493              299.672
 QM TEMPERATURE[K]            =                     404.037              375.423
 *******************************************************************************


  Translating the system in order to center the QM fragment in the QM box.

 Number of electrons:                                                         70
 Number of occupied orbitals:                                                 35
 Number of molecular orbitals:                                                35

 Number of orbital functions:                                                222
 Number of independent orbital functions:                                    222

 Extrapolation method: ASPC


 SCF WAVEFUNCTION OPTIMIZATION

  ----------------------------------- OT ---------------------------------------
  Minimizer      : DIIS                : direct inversion
                                         in the iterative subspace
                                         using   7 DIIS vectors
                                         safer DIIS on
  Preconditioner : FULL_SINGLE_INVERSE : inversion of 
                                         H + eS - 2*(Sc)(c^T*H*c+const)(Sc)^T
  Precond_solver : DEFAULT
  stepsize       :    0.08000000                  energy_gap     :    0.08000000
  eps_taylor     :   0.10000E-15                  max_taylor     :             4
  ----------------------------------- OT ---------------------------------------

  Step     Update method      Time    Convergence         Total energy    Change
  ------------------------------------------------------------------------------
     1 OT DIIS     0.80E-01    4.0     0.00135593      -115.1185847258 -1.15E+02
     2 OT DIIS     0.80E-01    4.9     0.00096865      -115.1190110799 -4.26E-04
     3 OT DIIS     0.80E-01    4.9     0.00044994      -115.1191500301 -1.39E-04
     4 OT DIIS     0.80E-01    4.9     0.00020029      -115.1191937433 -4.37E-05
     5 OT DIIS     0.80E-01    4.9     0.00012376      -115.1192050440 -1.13E-05
     6 OT DIIS     0.80E-01    4.9     0.00008527      -115.1192079978 -2.95E-06
     7 OT DIIS     0.80E-01    4.9     0.00004183      -115.1192096344 -1.64E-06
     8 OT DIIS     0.80E-01    4.9     0.00002118      -115.1192100650 -4.31E-07
     9 OT DIIS     0.80E-01    4.9     0.00001643      -115.1192101902 -1.25E-07
    10 OT DIIS     0.80E-01    4.9     0.00000908      -115.1192102294 -3.92E-08
    11 OT DIIS     0.80E-01    4.9     0.00000513      -115.1192102505 -2.11E-08
    12 OT DIIS     0.80E-01    4.9     0.00000300      -115.1192102569 -6.45E-09
    13 OT DIIS     0.80E-01    4.9     0.00000193      -115.1192102558  1.10E-09
    14 OT DIIS     0.80E-01    4.9     0.00000160      -115.1192102563 -5.16E-10
    15 OT DIIS     0.80E-01    4.9     0.00000095      -115.1192102567 -4.09E-10

  *** SCF run converged in    15 steps ***


  Electronic density on regular grids:        -69.9999999987        0.0000000013
  Core density on regular grids:               69.9999999957       -0.0000000043
  Total charge density on r-space grids:       -0.0000000030
  Total charge density g-space grids:          -0.0000000030

  Overlap energy of the core charge distribution:               0.00000342899839
  Self energy of the core charge distribution:               -278.09582761455005
  Core Hamiltonian energy:                                     84.27560054170060
  Hartree energy:                                             112.59590063145147
  Exchange-correlation energy:                                -31.85292835388621
  QM/MM Electrostatic energy:                                  -2.04195889043224

  Total energy:                                              -115.11921025671801

  outer SCF iter =    1 RMS gradient =   0.95E-06 energy =       -115.1192102567
  outer SCF loop converged in   1 iterations or   15 steps


 ENERGY| Total FORCE_EVAL ( QMMM ) energy (a.u.):           -253.378752700266034


 *******************************************************************************
 ENSEMBLE TYPE                =                                              NVT
 STEP NUMBER                  =                                                5
 TIME [fs]                    =                                         5.000000
 CONSERVED QUANTITY [hartree] =                              -0.209067382041E+03

                                              INSTANTANEOUS             AVERAGES
 CPU TIME [s]                 =                      126.82               175.10
 ENERGY DRIFT PER ATOM [K]    =          0.975487598213E-02   0.784095865102E-01
 POTENTIAL ENERGY[hartree]    =         -0.253378752700E+03  -0.253142282627E+03
 TOTAL KINETIC ENERGY[hartree]=          0.442959262546E+02   0.440790760111E+02
 QM KINETIC ENERGY[hartree]   =          0.416148648301E-01   0.397098313242E-01
 TOTAL TEMPERATURE[K]         =                     301.517              300.041
 QM TEMPERATURE[K]            =                     398.210              379.981
 *******************************************************************************


 -------------------------------------------------------------------------------
 -                                                                             -
 -                                DBCSR STATISTICS                             -
 -                                                                             -
 -------------------------------------------------------------------------------
 COUNTER                                    TOTAL       BLAS       SMM       ACC
 flops     5 x     3 x     3                10080       0.0%    100.0%      0.0%
 flops     3 x     3 x     3                39852       0.0%    100.0%      0.0%
 flops    13 x     3 x     3                45864       0.0%    100.0%      0.0%
 flops     5 x    32 x     3                53760       0.0%    100.0%      0.0%
 flops     5 x     3 x    32                53760       0.0%    100.0%      0.0%
 flops     3 x     3 x    13               211536       0.0%    100.0%      0.0%
 flops    13 x    32 x     3               244608       0.0%    100.0%      0.0%
 flops    13 x     3 x    32               244608       0.0%    100.0%      0.0%
 flops     3 x     3 x    26               423072       0.0%    100.0%      0.0%
 flops     3 x     3 x    32               425088       0.0%    100.0%      0.0%
 flops     3 x    32 x     3               425088       0.0%    100.0%      0.0%
 flops    32 x     3 x     3               425088       0.0%    100.0%      0.0%
 flops    49 x     3 x     3               485982       0.0%    100.0%      0.0%
 flops    54 x     3 x     3               535572       0.0%    100.0%      0.0%
 flops    57 x     3 x     3               565326       0.0%    100.0%      0.0%
 flops    62 x     3 x     3               614916       0.0%    100.0%      0.0%
 flops     5 x     5 x     3               712800       0.0%    100.0%      0.0%
 flops    49 x     3 x    13               917280       0.0%    100.0%      0.0%
 flops    54 x     3 x    13              1010880       0.0%    100.0%      0.0%
 flops    57 x     3 x    13              1067040       0.0%    100.0%      0.0%
 flops     5 x    32 x    32              1146880       0.0%    100.0%      0.0%
 flops    62 x     3 x    13              1160640       0.0%    100.0%      0.0%
 flops     3 x     3 x    18              1171584       0.0%    100.0%      0.0%
 flops    49 x     3 x    26              1834560       0.0%    100.0%      0.0%
 flops    54 x     3 x    26              2021760       0.0%    100.0%      0.0%
 flops    57 x     3 x    26              2134080       0.0%    100.0%      0.0%
 flops    32 x     3 x    13              2221440       0.0%    100.0%      0.0%
 flops     3 x    32 x    13              2256384       0.0%    100.0%      0.0%
 flops    62 x     3 x    26              2321280       0.0%    100.0%      0.0%
 flops     5 x     3 x     5              2611200       0.0%    100.0%      0.0%
 flops    13 x     5 x     3              2882880       0.0%    100.0%      0.0%
 flops     5 x    13 x     3              2882880       0.0%    100.0%      0.0%
 flops    32 x     3 x    26              4442880       0.0%    100.0%      0.0%
 flops     3 x    32 x    26              4512768       0.0%    100.0%      0.0%
 flops    32 x    32 x     3              4534272       0.0%    100.0%      0.0%
 flops     3 x    32 x    32              4534272       0.0%    100.0%      0.0%
 flops    32 x     3 x    32              4534272       0.0%    100.0%      0.0%
 flops    49 x     3 x    18              5080320       0.0%    100.0%      0.0%
 flops    49 x     3 x    32              5183808       0.0%    100.0%      0.0%
 flops    49 x    32 x     3              5183808       0.0%    100.0%      0.0%
 flops    13 x    32 x    32              5218304       0.0%    100.0%      0.0%
 flops    54 x     3 x    18              5598720       0.0%    100.0%      0.0%
 flops    54 x    32 x     3              5712768       0.0%    100.0%      0.0%
 flops    54 x     3 x    32              5712768       0.0%    100.0%      0.0%
 flops    57 x     3 x    18              5909760       0.0%    100.0%      0.0%
 flops    57 x     3 x    32              6030144       0.0%    100.0%      0.0%
 flops    57 x    32 x     3              6030144       0.0%    100.0%      0.0%
 flops    62 x     3 x    18              6428160       0.0%    100.0%      0.0%
 flops    62 x     3 x    32              6559104       0.0%    100.0%      0.0%
 flops    62 x    32 x     3              6559104       0.0%    100.0%      0.0%
 flops     5 x     5 x    32              7603200       0.0%    100.0%      0.0%
 flops    49 x    32 x    13              9784320       0.0%    100.0%      0.0%
 flops    54 x    32 x    13             10782720       0.0%    100.0%      0.0%
 flops    57 x    32 x    13             11381760       0.0%    100.0%      0.0%
 flops     5 x     3 x    13             11880960       0.0%    100.0%      0.0%
 flops    13 x     3 x     5             11880960       0.0%    100.0%      0.0%
 flops    32 x     3 x    18             12303360       0.0%    100.0%      0.0%
 flops    62 x    32 x    13             12380160       0.0%    100.0%      0.0%
 flops     3 x    32 x    18             12496896       0.0%    100.0%      0.0%
 flops    13 x    13 x     3             14054040       0.0%    100.0%      0.0%
 flops    49 x    32 x    26             19568640       0.0%    100.0%      0.0%
 flops    54 x    32 x    26             21565440       0.0%    100.0%      0.0%
 flops    57 x    32 x    26             22763520       0.0%    100.0%      0.0%
 flops    32 x    32 x    13             24068096       0.0%    100.0%      0.0%
 flops    62 x    32 x    26             24760320       0.0%    100.0%      0.0%
 flops     5 x    32 x     5             27852800       0.0%    100.0%      0.0%
 flops    13 x     5 x    32             30750720       0.0%    100.0%      0.0%
 flops     5 x    13 x    32             30750720       0.0%    100.0%      0.0%
 flops    32 x    32 x    26             48136192       0.0%    100.0%      0.0%
 flops    32 x    32 x    32             48365568       0.0%    100.0%      0.0%
 flops    13 x     3 x    13             54058368       0.0%    100.0%      0.0%
 flops    49 x    32 x    18             54190080       0.0%    100.0%      0.0%
 flops    49 x    32 x    32             55293952       0.0%    100.0%      0.0%
 flops    54 x    32 x    18             59719680       0.0%    100.0%      0.0%
 flops    54 x    32 x    32             60936192       0.0%    100.0%      0.0%
 flops    57 x    32 x    18             63037440       0.0%    100.0%      0.0%
 flops    57 x    32 x    32             64321536       0.0%    100.0%      0.0%
 flops    62 x    32 x    18             68567040       0.0%    100.0%      0.0%
 flops    62 x    32 x    32             69963776       0.0%    100.0%      0.0%
 flops    13 x    32 x     5            126730240       0.0%    100.0%      0.0%
 flops     5 x    32 x    13            126730240       0.0%    100.0%      0.0%
 flops    32 x    32 x    18            133300224       0.0%    100.0%      0.0%
 flops    13 x    13 x    32            149909760       0.0%    100.0%      0.0%
 flops    13 x    32 x    13            576622592       0.0%    100.0%      0.0%
 flops inhomo. stacks                           0       0.0%      0.0%      0.0%
 flops total                         2.207435E+09       0.0%    100.0%      0.0%
 flops max/rank                    632.816040E+06       0.0%    100.0%      0.0%
 matmuls inhomo. stacks                         0       0.0%      0.0%      0.0%
 matmuls total                             378864       0.0%    100.0%      0.0%
 number of processed stacks                174828       0.0%    100.0%      0.0%
 average stack size                                     0.0       2.2       0.0
 marketing flops                     2.427994E+09
 -------------------------------------------------------------------------------
 # multiplications                           2286
 max memory usage/rank               2.190295E+09
 # max total images/rank                        3
 # max 3D layers                                1
 # MPI messages exchanged                 4828032
 MPI messages size (bytes):
  total size                         3.372993E+09
  min size                           0.000000E+00
  max size                          15.872000E+03
  average size                     698.626770E+00
 MPI breakdown and total messages size (bytes):
             size <=      128             4115529                  1616472
       128 < size <=     8192              578347               1946299696
      8192 < size <=    32768              134156               1425076224
     32768 < size <=   131072                   0                        0
    131072 < size <=  4194304                   0                        0
   4194304 < size <= 16777216                   0                        0
  16777216 < size                               0                        0
 -------------------------------------------------------------------------------

 *** WARNING in dbcsr/mm/dbcsr_mm.F:268 :: Using a non-square number of ***
 *** MPI ranks might lead to poor performance.                          ***
 *** Used ranks: 48                                                     ***
 *** Suggested: 49 100                                                  ***

 -------------------------------------------------------------------------------

 MEMORY| Estimated peak process memory [MiB]                                2089

 -------------------------------------------------------------------------------
 -                                                                             -
 -                         MESSAGE PASSING PERFORMANCE                         -
 -                                                                             -
 -------------------------------------------------------------------------------

 ROUTINE             CALLS      AVE VOLUME [Bytes]
 MP_Group               95
 MP_Bcast             5037                2468524.
 MP_Allreduce        22502                 372392.
 MP_Sync                41
 MP_Alltoall         10077               14475980.
 MP_ISendRecv        22372                 163296.
 MP_Wait            291722
 MP_comm_split          30
 MP_ISend           224978                  52827.
 MP_IRecv           223078                  53131.
 MP_Memory          172388
 -------------------------------------------------------------------------------


 -------------------------------------------------------------------------------
 -                                                                             -
 -                           R E F E R E N C E S                               -
 -                                                                             -
 -------------------------------------------------------------------------------
 
 CP2K version 6.1, the CP2K developers group (2018).
 CP2K is freely available from https://www.cp2k.org/ .

 Schuett, Ole; Messmer, Peter; Hutter, Juerg; VandeVondele, Joost. 
 Electronic Structure Calculations on Graphics Processing Units, John Wiley & Sons, Ltd, 173-190 (2016). 
 GPU-Accelerated Sparse Matrix-Matrix Multiplication for Linear Scaling Density Functional Theory.
 http://dx.doi.org/10.1002/9781118670712.ch8


 Borstnik, U; VandeVondele, J; Weber, V; Hutter, J. 
 PARALLEL COMPUTING, 40 (5-6), 47-58 (2014). 
 Sparse matrix multiplication: The distributed block-compressed sparse
 row library.
 http://dx.doi.org/10.1016/j.parco.2014.03.012


 Hutter, J; Iannuzzi, M; Schiffmann, F; VandeVondele, J. 
 WILEY INTERDISCIPLINARY REVIEWS-COMPUTATIONAL MOLECULAR SCIENCE, 4 (1), 15-25 (2014). 
 CP2K: atomistic simulations of condensed matter systems.
 http://dx.doi.org/10.1002/wcms.1159


 Laino, T; Mohamed, F; Laio, A; Parrinello, M. 
 JOURNAL OF CHEMICAL THEORY AND COMPUTATION, 1 (6), 1176-1184 (2005). 
 An efficient real space multigrid QM/MM electrostatic coupling.
 http://dx.doi.org/10.1021/ct050123f


 Krack, M. 
 THEORETICAL CHEMISTRY ACCOUNTS, 114 (1-3), 145-152 (2005). 
 Pseudopotentials for H to Kr optimized for gradient-corrected
 exchange-correlation functionals.
 http://dx.doi.org/10.1007/s00214-005-0655-y


 VandeVondele, J; Krack, M; Mohamed, F; Parrinello, M; Chassaing, T;
 Hutter, J. COMPUTER PHYSICS COMMUNICATIONS, 167 (2), 103-128 (2005). 
 QUICKSTEP: Fast and accurate density functional calculations using a
 mixed Gaussian and plane waves approach.
 http://dx.doi.org/10.1016/j.cpc.2004.12.014


 Frigo, M; Johnson, SG. 
 PROCEEDINGS OF THE IEEE, 93 (2), 216-231 (2005). 
 The design and implementation of FFTW3.
 http://dx.doi.org/10.1109/JPROC.2004.840301


 Kolafa, J. 
 JOURNAL OF COMPUTATIONAL CHEMISTRY, 25 (3), 335-342 (2004). 
 Time-reversible always stable predictor-corrector method for molecular dynamics of polarizable molecules.
 http://dx.doi.org/10.1002/jcc.10385


 VandeVondele, J; Hutter, J. 
 JOURNAL OF CHEMICAL PHYSICS, 118 (10), 4365-4369 (2003). 
 An efficient orbital transformation method for electronic structure
 calculations.
 http://dx.doi.org/10.1063/1.1543154


 Hartwigsen, C; Goedecker, S; Hutter, J. 
 PHYSICAL REVIEW B, 58 (7), 3641-3662 (1998). 
 Relativistic separable dual-space Gaussian pseudopotentials from H to Rn.
 http://dx.doi.org/10.1103/PhysRevB.58.3641


 Lippert, G; Hutter, J; Parrinello, M. 
 MOLECULAR PHYSICS, 92 (3), 477-487 (1997). 
 A hybrid Gaussian and plane wave density functional scheme.
 http://dx.doi.org/10.1080/002689797170220


 Goedecker, S; Teter, M; Hutter, J. 
 PHYSICAL REVIEW B, 54 (3), 1703-1710 (1996). 
 Separable dual-space Gaussian pseudopotentials.
 http://dx.doi.org/10.1103/PhysRevB.54.1703


 ESSMANN, U; PERERA, L; BERKOWITZ, ML; DARDEN, T; LEE, H; PEDERSEN, LG. 
 JOURNAL OF CHEMICAL PHYSICS, 103 (19), 8577-8593 (1995). 
 A SMOOTH PARTICLE MESH EWALD METHOD.
 http://dx.doi.org/10.1063/1.470117


 BECKE, AD. PHYSICAL REVIEW A, 38 (6), 3098-3100 (1988). 
 DENSITY-FUNCTIONAL EXCHANGE-ENERGY APPROXIMATION WITH CORRECT
 ASYMPTOTIC-BEHAVIOR.
 http://dx.doi.org/10.1103/PhysRevA.38.3098


 LEE, CT; YANG, WT; PARR, RG. 
 PHYSICAL REVIEW B, 37 (2), 785-789 (1988). 
 DEVELOPMENT OF THE COLLE-SALVETTI CORRELATION-ENERGY FORMULA INTO A
 FUNCTIONAL OF THE ELECTRON-DENSITY.
 http://dx.doi.org/10.1103/PhysRevB.37.785


 NOSE, S. JOURNAL OF CHEMICAL PHYSICS, 81 (1), 511-519 (1984). 
 A UNIFIED FORMULATION OF THE CONSTANT TEMPERATURE MOLECULAR-DYNAMICS
 METHODS.
 http://dx.doi.org/10.1063/1.447334


 NOSE, S. MOLECULAR PHYSICS, 52 (2), 255-268 (1984). 
 A MOLECULAR-DYNAMICS METHOD FOR SIMULATIONS IN THE CANONICAL ENSEMBLE.
 http://dx.doi.org/10.1080/00268978400101201


 -------------------------------------------------------------------------------
 -                                                                             -
 -                                T I M I N G                                  -
 -                                                                             -
 -------------------------------------------------------------------------------
 SUBROUTINE                       CALLS  ASD         SELF TIME        TOTAL TIME
                                MAXIMUM       AVERAGE  MAXIMUM  AVERAGE  MAXIMUM
 CP2K                                 1  1.0    1.017    1.172  887.551  887.581
 qs_mol_dyn_low                       1  2.0    0.004    0.006  875.719  876.292
 velocity_verlet                      5  3.0    0.011    0.012  609.238  609.275
 qs_forces                            6  3.8    0.001    0.001  592.576  592.596
 qs_energies                          6  4.8    0.000    0.001  567.854  567.874
 scf_env_do_scf                       6  5.8    0.000    0.001  558.496  558.516
 scf_env_do_scf_inner_loop          113  6.6    0.003    0.009  530.616  530.634
 rebuild_ks_matrix                  119  8.5    0.000    0.000  469.771  469.796
 qs_ks_build_kohn_sham_matrix       119  9.5    0.022    0.025  469.771  469.796
 pw_transfer                       2327 12.0    0.197    0.292  452.332  455.368
 fft_wrap_pw1pw2                   2059 13.1    0.031    0.045  447.411  450.416
 qs_ks_update_qs_env                120  7.6    0.001    0.001  445.079  445.103
 fft_wrap_pw1pw2_150               1321 14.3   38.080   39.139  437.811  439.847
 fft3d_ps                          2059 15.1  194.923  199.244  342.514  347.301
 qs_vxc_create                      119 10.5    0.004    0.005  330.662  330.685
 xc_vxc_pw_create                   119 11.5    4.854    5.846  330.659  330.681
 xc_rho_set_and_dset_create         119 12.5    4.519    4.892  148.943  152.666
 qmmm_forces                          6  3.8    0.105    0.112  149.263  149.268
 qmmm_forces_with_gaussian            6  4.8    0.160    0.183  145.774  146.964
 qmmm_el_coupling                     6  3.8    0.000    0.000  130.629  131.843
 qmmm_elec_with_gaussian              6  4.8    0.059    0.080  130.586  131.799
 pw_restrict_s3                      18  5.8   94.107   96.825  119.929  121.269
 qs_rho_update_rho                  119  7.7    0.001    0.001  115.540  115.545
 calculate_rho_elec                 119  8.7    0.918    3.869  115.540  115.544
 density_rs2pw                      119  9.7    0.012    0.015  110.464  111.252
 qmmm_elec_with_gaussian:spline       6  5.8    0.000    0.000  102.473  103.701
 pw_prolongate_s3                    18  6.8   79.542   81.229  102.473  103.701
 x_to_yz                           1095 16.6   41.392   41.634   86.437   88.069
 mp_alltoall_z22v                  2059 17.1   83.563   87.310   83.563   87.310
 sum_up_and_integrate               119 10.5    1.124    1.142   75.758   75.806
 integrate_v_rspace                 119 11.5    0.349    2.333   74.634   74.677
 potential_pw2rs                    119 12.5    0.040    0.046   72.204   72.250
 yz_to_x                            964 15.6   22.559   23.298   61.076   63.159
 rs_pw_transfer                     988 11.9    0.018    0.028   51.028   51.557
 pw_scatter_p                      1095 15.6   37.571   38.261   37.571   38.261
 pw_gather_p                        964 14.6   28.493   29.642   28.493   29.642
 init_scf_loop                        7  6.7    0.000    0.000   27.873   27.875
 pw_derive                          732 12.8   26.261   27.053   26.261   27.053
 pw_axpy                           2152  9.1   25.554   26.741   25.554   26.741
 qs_ks_update_qs_env_forces           6  4.8    0.000    0.000   24.698   24.699
 rs_pw_transfer_PW2RS_150           125 14.3   13.831   15.528   21.229   22.269
 pw_zero                           2135  7.4   20.629   21.565   20.629   21.565
 rs_pw_transfer_RS2PW_150           125 11.6   13.327   14.551   17.854   18.915
 pw_copy                           1429 12.6   17.598   18.071   17.598   18.071
 -------------------------------------------------------------------------------

 The number of warnings for this run is : 1
 
 -------------------------------------------------------------------------------
  **** **** ******  **  PROGRAM ENDED AT                 2019-03-06 11:28:23.896
 ***** ** ***  *** **   PROGRAM RAN ON                                  nid04762
 **    ****   ******    PROGRAM RAN BY                                  fionabio
 ***** **    ** ** **   PROGRAM PROCESS ID                                 48365
  **** **  *******  **  PROGRAM STOPPED IN /fs3/d118/d118/fionabio/BioExcel2/cp2
                                           k_benchmarks/QMMM/MM/2_nodes/test-1
Experiment data file written:
/fs3/d118/d118/fionabio/BioExcel2/cp2k_benchmarks/QMMM/MM/2_nodes/test-1/cp2k.psmp+samp+48365-4762s.xf
Application 33823400 resources: utime ~40763s, stime ~1980s, Rss ~2218716, inblocks ~1419536, outblocks ~1121766
