CrayPat/X:  Version 6.4.6 Revision 7d0d87c  02/20/17 09:52:37
 *******************************************************************************
 *                            RESTART INFORMATION                              *
 *******************************************************************************
 *                                                                             *
 *    RESTART FILE NAME: NPT-1_5000.restart                                    *
 *                                                                             *
 * RESTARTED QUANTITIES:                                                       *
 *                       CELL                                                  *
 *                       COORDINATES                                           *
 *                       RANDOM NUMBER GENERATOR                               *
 *                       VELOCITIES                                            *
 *                       MD AVERAGES                                           *
 *                       REAL TIME PROPAGATION                                 *
 *                       PINT BEAD POSITIONS                                   *
 *                       PINT BEAD VELOCITIES                                  *
 *                       PINT NOSE THERMOSTAT                                  *
 *                       PINT GLE THERMOSTAT                                   *
 *                       HELIUM BEAD POSITIONS                                 *
 *                       HELIUM PERMUTATION STATE                              *
 *                       HELIUM FORCES ON SOLUTE                               *
 *                       HELIUM RNG STATE                                      *
 *******************************************************************************

 DBCSR| Multiplication driver                                               XSMM
 DBCSR| Multrec recursion limit                                              512
 DBCSR| Multiplication stack size                                           1000
 DBCSR| Maximum elements for images                                    UNLIMITED
 DBCSR| Multiplicative factor virtual images                                   1
 DBCSR| Multiplication size stacks                                             3
 DBCSR| Number of 3D layers                                               SINGLE
 DBCSR| Use MPI memory allocation                                              T
 DBCSR| Use RMA algorithm                                                      F
 DBCSR| Use Communication thread                                               T
 DBCSR| Communication thread load                                             87


  **** **** ******  **  PROGRAM STARTED AT               2019-03-06 11:30:00.590
 ***** ** ***  *** **   PROGRAM STARTED ON                              nid04762
 **    ****   ******    PROGRAM STARTED BY                              fionabio
 ***** **    ** ** **   PROGRAM PROCESS ID                                 48491
  **** **  *******  **  PROGRAM STARTED IN /fs3/d118/d118/fionabio/BioExcel2/cp2
                                           k_benchmarks/QMMM/MM/2_nodes/test-1

 CP2K| version string:                                          CP2K version 6.1
 CP2K| source code revision number:                                    svn:18464
 CP2K| cp2kflags: omp libint fftw3 libxc elpa=201605 elpa_qr parallel mpi3 scala
 CP2K|            pack xsmm libgrid has_no_shared_glibc max_contr=4 statm_resident plumed2
 CP2K| is freely available from                            https://www.cp2k.org/
 CP2K| Program compiled at                          Fri Feb 15 14:30:53 GMT 2019
 CP2K| Program compiled on                                            eslogin007
 CP2K| Program compiled for                                       ARCHER_craypat
 CP2K| Data directory path                     /work/y07/y07/cp2k/6.1.18464/data
 CP2K| Input file name                                       fr_qmmm_40steps.inp

 GLOBAL| Force Environment number                                              1
 GLOBAL| Basis set file name                                           BASIS_SET
 GLOBAL| Potential file name                                           POTENTIAL
 GLOBAL| MM Potential file name                                     MM_POTENTIAL
 GLOBAL| Coordinate file name                                      __STD_INPUT__
 GLOBAL| Method name                                                        CP2K
 GLOBAL| Project name                                                       QMMM
 GLOBAL| Preferred FFT library                                             FFTW3
 GLOBAL| Preferred diagonalization lib.                                       SL
 GLOBAL| Run type                                                             MD
 GLOBAL| All-to-all communication in single precision                          F
 GLOBAL| FFTs using library dependent lengths                                  F
 GLOBAL| Global print level                                                  LOW
 GLOBAL| Total number of message passing processes                            48
 GLOBAL| Number of threads for this process                                    1
 GLOBAL| This output is from process                                           0
 GLOBAL| CPU model name :  Intel(R) Xeon(R) CPU E5-2697 v2 @ 2.70GHz

 MEMORY| system memory details [Kb]
 MEMORY|                        rank 0           min           max       average
 MEMORY| MemTotal             66072152      66072152      66072152      66072152
 MEMORY| MemFree              60944620      60944620      60953000      60948810
 MEMORY| Buffers                     0             0             0             0
 MEMORY| Cached                 284852        279964        284852        282408
 MEMORY| Slab                   273484        272752        273484        273118
 MEMORY| SReclaimable             8736          8736          8928          8832
 MEMORY| MemLikelyFree        61238208      61238208      61241892      61240050



                      ************* ******** ***********   
                     ************* **********************  
                     ****     **** ****      ***********   
                     ******** ****  *******     ****       
                     *******  ****   *******   ****        
                     ****     ****       ****  ****        
                     ****     **** **********  ****        
                      ****     **** ********    ****       
                     FRONTIERS IN SIMULATION TECHNOLOGY    
                                                           
                        C.J. Mundy, S. Balasubramanian,    
                     Ken Bagchi, J. Hutter, Ari Seitsonen  
                      IFW Kuo, T. Laino, J. VandeVondele   
                                 Version 1.0               

                                                           


 EWALD| Summation is done by:                                               SPME
 EWALD| Alpha parameter [       ANGSTROM^-1]                              0.4000
 EWALD| Real Space Cutoff [          ANGSTROM]                            8.4348
 EWALD| G-space max. Miller index                         80        80        80
 EWALD| Spline interpolation order                                             6

 FORCEFIELD| WARNING: A non Critical ForceField parameter is missing! CP2K GOES!
 FORCEFIELD| Non critical parameters are:Urey-Bradley,Torsions,Impropers, Opbends and 1-4
 FORCEFIELD| All missing parameters will not contribute to the potential energy!
 FORCEFIELD| Activate the print key FF_INFO to have a list of missing parameters

 CHARGE_INFO| Total Charge of the Classical System:                     0.000000

 SPLINE_INFO| Generating 56953 splines for NONBONDED14 interactions 
              Due to 337 different atomic kinds
  ...5695  ...11390  ...17085  ...22780  ...28475  ...34170  ...39865  ...45560  ...51255  ...56950
 SPLINE_INFO| Number of unique splines computed:            137
 SPLINE_INFO| Done

 SPLINE_INFO| Generating 56953 splines for NONBONDED interactions 
              Due to 337 different atomic kinds
  ...5695  ...11390  ...17085  ...22780  ...28475  ...34170  ...39865  ...45560  ...51255  ...56950
 SPLINE_INFO| Number of unique splines computed:            137
 SPLINE_INFO| Done

 *******************************************************************************
 *******************************************************************************
 **                                                                           **
 **     #####                         ##              ##                      **
 **    ##   ##            ##          ##              ##                      **
 **   ##     ##                       ##            ######                    **
 **   ##     ##  ##   ##  ##   #####  ##  ##   ####   ##    #####    #####    **
 **   ##     ##  ##   ##  ##  ##      ## ##   ##      ##   ##   ##  ##   ##   **
 **   ##  ## ##  ##   ##  ##  ##      ####     ###    ##   ######   ######    **
 **    ##  ###   ##   ##  ##  ##      ## ##      ##   ##   ##       ##        **
 **     #######   #####   ##   #####  ##  ##  ####    ##    #####   ##        **
 **           ##                                                    ##        **
 **                                                                           **
 **                                                ... make the atoms dance   **
 **                                                                           **
 **            Copyright (C) by CP2K developers group (2000 - 2018)           **
 **                                                                           **
 *******************************************************************************


 TOTAL NUMBERS AND MAXIMUM NUMBERS

  Total number of            - Atomic kinds:                                   5
                             - Atoms:                                         22
                             - Shell sets:                                    44
                             - Shells:                                        94
                             - Primitive Cartesian functions:                110
                             - Cartesian basis functions:                    236
                             - Spherical basis functions:                    222

  Maximum angular momentum of- Orbital basis functions:                        2
                             - Local part of the GTH pseudopotential:          2
                             - Non-local part of the GTH pseudopotential:      0


 SCF PARAMETERS         Density guess:                                    ATOMIC
                        --------------------------------------------------------
                        max_scf:                                              30
                        max_scf_history:                                       0
                        max_diis:                                              4
                        --------------------------------------------------------
                        eps_scf:                                        1.00E-06
                        eps_scf_history:                                0.00E+00
                        eps_diis:                                       1.00E-01
                        eps_eigval:                                     1.00E-05
                        --------------------------------------------------------
                        level_shift [a.u.]:                                 0.00
                        --------------------------------------------------------
                        Outer loop SCF in use 
                        No variables optimised in outer loop
                        eps_scf                                         1.00E-06
                        max_scf                                               10
                        No outer loop optimization
                        step_size                                       5.00E-01

 *******************************************************************************
 *******************************************************************************
 **                                                                           **
 **             #######  ##     ## ##     ## ##     ##                        **
 **            ##     ## ###   ### ###   ### ###   ###                        **
 **            ##     ## #### #### #### #### #### ####                        **
 **            ##     ## ## ### ## ## ### ## ## ### ##                        **
 **            ##  ## ## ##     ## ##     ## ##     ##                        **
 **            ##    ##  ##     ## ##     ## ##     ##  T.Laino and F.Mohamed **
 **             ##### ## ##     ## ##     ## ##     ##  2005 - 2015           **
 **                                                                           **
 **                                                     Calculation Started.. **
 *******************************************************************************
 *******************************************************************************

 MD| Molecular Dynamics Protocol 
 MD| Ensemble Type                                                           NVT
 MD| Number of Time Steps                                                     40
 MD| Time Step [fs]                                                         1.00
 MD| Temperature [K]                                                      298.00
 MD| Temperature tolerance [K]                                              0.00
 MD| Print MD information every                                        1 step(s)
 MD| File type     Print frequency[steps]                             File names
 MD| Coordinates          100                                     QMMM-pos-1.xyz
 MD| Velocities             1                                     QMMM-vel-1.xyz
 MD| Energies               1                                        QMMM-1.ener
 MD| Dump                1000                                     QMMM-1.restart

 ROT| Rotational Analysis Info 
 ROT| Principal axes and moments of inertia in atomic units:
 ROT|                                1                 2                 3
 ROT| EIGENVALUES            0.783752064E+12   0.946041841E+12   0.987014226E+12
 ROT|      X                    -0.999672383      -0.015945217       0.020021921
 ROT|      Y                    -0.017525004       0.996529037      -0.081380298
 ROT|      Z                     0.018654799       0.081704521       0.996481997
 ROT| Numer of Rotovibrational vectors:     6

 Calculation of degrees of freedom
                                                      Number of atoms:     30928
                                 Number of Intramolecular constraints:         0
                                 Number of Intermolecular constraints:         0
                                  Invariants(translation + rotations):         3
                                                   Degrees of freedom:     92781


 Restraints Information
                                  Number of Intramolecular restraints:         0
                                  Number of Intermolecular restraints:         0

 THERMOSTAT| Thermostat Info for PARTICLES
 THERMOSTAT| Type of thermostat                               Nose-Hoover-Chains
 THERMOSTAT| Nose-Hoover-Chain length                                          3
 THERMOSTAT| Nose-Hoover-Chain time constant [  fs]                       100.00
 THERMOSTAT| Order of Yoshida integrator                                       3
 THERMOSTAT| Number of multiple time steps                                     2
 THERMOSTAT| Initial Potential Energy                                   0.000000
 THERMOSTAT| Initial Kinetic Energy                                     0.000472
 THERMOSTAT| End of Thermostat Info for PARTICLES

 ************************** Velocities initialization **************************
 Initial Temperature                                                    299.40 K
 COM velocity:            0.000000000000      0.000000000000     -0.000000000000
 *******************************************************************************


  Translating the system in order to center the QM fragment in the QM box.

 Number of electrons:                                                         70
 Number of occupied orbitals:                                                 35
 Number of molecular orbitals:                                                35

 Number of orbital functions:                                                222
 Number of independent orbital functions:                                    222

 Extrapolation method: initial_guess


 SCF WAVEFUNCTION OPTIMIZATION

  ----------------------------------- OT ---------------------------------------
  Minimizer      : DIIS                : direct inversion
                                         in the iterative subspace
                                         using   7 DIIS vectors
                                         safer DIIS on
  Preconditioner : FULL_SINGLE_INVERSE : inversion of 
                                         H + eS - 2*(Sc)(c^T*H*c+const)(Sc)^T
  Precond_solver : DEFAULT
  stepsize       :    0.08000000                  energy_gap     :    0.08000000
  eps_taylor     :   0.10000E-15                  max_taylor     :             4
  ----------------------------------- OT ---------------------------------------

  Step     Update method      Time    Convergence         Total energy    Change
  ------------------------------------------------------------------------------
     1 OT DIIS     0.80E-01    4.1     0.09329988      -108.0952724262 -1.08E+02
     2 OT DIIS     0.80E-01    4.9     0.06536893      -111.6363047228 -3.54E+00
     3 OT DIIS     0.80E-01    4.9     0.04290678      -113.1681812583 -1.53E+00
     4 OT DIIS     0.80E-01    4.9     0.02833519      -114.3133057584 -1.15E+00
     5 OT DIIS     0.80E-01    4.9     0.01818393      -114.6001423277 -2.87E-01
     6 OT DIIS     0.80E-01    4.9     0.01230835      -114.8486082530 -2.48E-01
     7 OT DIIS     0.80E-01    5.0     0.00787224      -114.9377900595 -8.92E-02
     8 OT DIIS     0.80E-01    4.9     0.00523739      -114.9888305500 -5.10E-02
     9 OT DIIS     0.80E-01    5.0     0.00372689      -115.0169117427 -2.81E-02
    10 OT DIIS     0.80E-01    4.9     0.00272520      -115.0331860290 -1.63E-02
    11 OT DIIS     0.80E-01    4.9     0.00194499      -115.0415206877 -8.33E-03
    12 OT DIIS     0.80E-01    4.9     0.00142275      -115.0465877879 -5.07E-03
    13 OT DIIS     0.80E-01    4.9     0.00114142      -115.0496410179 -3.05E-03
    14 OT DIIS     0.80E-01    4.9     0.00092933      -115.0513788758 -1.74E-03
    15 OT DIIS     0.80E-01    5.0     0.00076838      -115.0528256357 -1.45E-03
    16 OT DIIS     0.80E-01    4.9     0.00066158      -115.0538076170 -9.82E-04
    17 OT DIIS     0.80E-01    4.9     0.00057756      -115.0545612000 -7.54E-04
    18 OT DIIS     0.80E-01    4.9     0.00051171      -115.0552317461 -6.71E-04
    19 OT DIIS     0.80E-01    4.9     0.00045778      -115.0557975364 -5.66E-04
    20 OT DIIS     0.80E-01    4.9     0.00039297      -115.0563685147 -5.71E-04
    21 OT DIIS     0.80E-01    4.9     0.00034178      -115.0568053999 -4.37E-04
    22 OT DIIS     0.80E-01    4.9     0.00029181      -115.0571573507 -3.52E-04
    23 OT DIIS     0.80E-01    4.9     0.00024127      -115.0574118833 -2.55E-04
    24 OT DIIS     0.80E-01    4.9     0.00019963      -115.0575813769 -1.69E-04
    25 OT DIIS     0.80E-01    5.0     0.00016168      -115.0576849281 -1.04E-04
    26 OT DIIS     0.80E-01    4.9     0.00013086      -115.0577525244 -6.76E-05
    27 OT DIIS     0.80E-01    4.9     0.00010971      -115.0577861417 -3.36E-05
    28 OT DIIS     0.80E-01    4.9     0.00009005      -115.0578090012 -2.29E-05
    29 OT DIIS     0.80E-01    4.9     0.00007659      -115.0578235406 -1.45E-05
    30 OT DIIS     0.80E-01    4.9     0.00006594      -115.0578328087 -9.27E-06

  Leaving inner SCF loop after reaching    30 steps.


  Electronic density on regular grids:        -69.9999999948        0.0000000052
  Core density on regular grids:               69.9999999957       -0.0000000043
  Total charge density on r-space grids:        0.0000000009
  Total charge density g-space grids:           0.0000000009

  Overlap energy of the core charge distribution:               0.00000607847608
  Self energy of the core charge distribution:               -278.09582761455005
  Core Hamiltonian energy:                                     84.62163968032598
  Hartree energy:                                             112.36092013927343
  Exchange-correlation energy:                                -31.95866797917093
  QM/MM Electrostatic energy:                                  -1.98590311306289

  Total energy:                                              -115.05783280870837

  outer SCF iter =    1 RMS gradient =   0.66E-04 energy =       -115.0578328087

  ----------------------------------- OT ---------------------------------------
  Minimizer      : DIIS                : direct inversion
                                         in the iterative subspace
                                         using   7 DIIS vectors
                                         safer DIIS on
  Preconditioner : FULL_SINGLE_INVERSE : inversion of 
                                         H + eS - 2*(Sc)(c^T*H*c+const)(Sc)^T
  Precond_solver : DEFAULT
  stepsize       :    0.08000000                  energy_gap     :    0.08000000
  eps_taylor     :   0.10000E-15                  max_taylor     :             4
  ----------------------------------- OT ---------------------------------------

  Step     Update method      Time    Convergence         Total energy    Change
  ------------------------------------------------------------------------------
     1 OT DIIS     0.80E-01    9.9     0.00016332      -115.0578389702 -6.16E-06
     2 OT DIIS     0.80E-01    4.9     0.00011102      -115.0578519313 -1.30E-05
     3 OT DIIS     0.80E-01    4.9     0.00012615      -115.0578578800 -5.95E-06
     4 OT DIIS     0.80E-01    4.9     0.00006132      -115.0578619521 -4.07E-06
     5 OT DIIS     0.80E-01    4.9     0.00003690      -115.0578631312 -1.18E-06
     6 OT DIIS     0.80E-01    4.9     0.00002163      -115.0578635547 -4.23E-07
     7 OT DIIS     0.80E-01    4.9     0.00001272      -115.0578637033 -1.49E-07
     8 OT DIIS     0.80E-01    4.9     0.00000643      -115.0578637421 -3.88E-08
     9 OT DIIS     0.80E-01    4.9     0.00000390      -115.0578637511 -9.01E-09
    10 OT DIIS     0.80E-01    4.9     0.00000199      -115.0578637544 -3.31E-09
    11 OT DIIS     0.80E-01    4.9     0.00000136      -115.0578637559 -1.50E-09
    12 OT DIIS     0.80E-01    4.9     0.00000139      -115.0578637562 -3.34E-10
    13 OT DIIS     0.80E-01    4.9     0.00000073      -115.0578637564 -2.23E-10

  *** SCF run converged in    13 steps ***


  Electronic density on regular grids:        -69.9999999948        0.0000000052
  Core density on regular grids:               69.9999999957       -0.0000000043
  Total charge density on r-space grids:        0.0000000009
  Total charge density g-space grids:           0.0000000009

  Overlap energy of the core charge distribution:               0.00000607847608
  Self energy of the core charge distribution:               -278.09582761455005
  Core Hamiltonian energy:                                     84.62090578890010
  Hartree energy:                                             112.36149196448352
  Exchange-correlation energy:                                -31.95841753534201
  QM/MM Electrostatic energy:                                  -1.98602243840301

  Total energy:                                              -115.05786375643537

  outer SCF iter =    2 RMS gradient =   0.73E-06 energy =       -115.0578637564
  outer SCF loop converged in   2 iterations or   43 steps


 ENERGY| Total FORCE_EVAL ( QMMM ) energy (a.u.):           -253.053219646492039


 MD_ENERGIES| Initialization proceeding


 ******************************** GO CP2K GO! **********************************
 INITIAL POTENTIAL ENERGY[hartree]     =                     -0.253053219646E+03
 TOTAL INITIAL KINETIC ENERGY[hartree] =                      0.439844103254E+02
 QM INITIAL KINETIC ENERGY[hartree]    =                      0.350675982115E-01
 TOTAL INITIAL TEMPERATURE[K]          =                                 299.397
 QM INITIAL TEMPERATURE[K]             =                                 335.559
 INITIAL VOLUME[bohr^3]                =                      0.218187828648E+07
 INITIAL CELL LNTHS[bohr]   =      0.1449600E+03   0.1268275E+03   0.1186776E+03
 INITIAL CELL ANGLS[deg]    =      0.9000000E+02   0.9000000E+02   0.9000000E+02
 ******************************** GO CP2K GO! **********************************

  Translating the system in order to center the QM fragment in the QM box.

 Number of electrons:                                                         70
 Number of occupied orbitals:                                                 35
 Number of molecular orbitals:                                                35

 Number of orbital functions:                                                222
 Number of independent orbital functions:                                    222

 Extrapolation method: ASPC


 SCF WAVEFUNCTION OPTIMIZATION

  ----------------------------------- OT ---------------------------------------
  Minimizer      : DIIS                : direct inversion
                                         in the iterative subspace
                                         using   7 DIIS vectors
                                         safer DIIS on
  Preconditioner : FULL_SINGLE_INVERSE : inversion of 
                                         H + eS - 2*(Sc)(c^T*H*c+const)(Sc)^T
  Precond_solver : DEFAULT
  stepsize       :    0.08000000                  energy_gap     :    0.08000000
  eps_taylor     :   0.10000E-15                  max_taylor     :             4
  ----------------------------------- OT ---------------------------------------

  Step     Update method      Time    Convergence         Total energy    Change
  ------------------------------------------------------------------------------
     1 OT DIIS     0.80E-01    4.0     0.00133217      -115.1405570367 -1.15E+02
     2 OT DIIS     0.80E-01    4.9     0.00075553      -115.1412651186 -7.08E-04
     3 OT DIIS     0.80E-01    4.9     0.00066324      -115.1414475105 -1.82E-04
     4 OT DIIS     0.80E-01    4.9     0.00055435      -115.1415409999 -9.35E-05
     5 OT DIIS     0.80E-01    4.9     0.00021491      -115.1415887319 -4.77E-05
     6 OT DIIS     0.80E-01    4.9     0.00009071      -115.1415993703 -1.06E-05
     7 OT DIIS     0.80E-01    4.9     0.00005020      -115.1416021807 -2.81E-06
     8 OT DIIS     0.80E-01    4.9     0.00003357      -115.1416027562 -5.75E-07
     9 OT DIIS     0.80E-01    4.9     0.00002039      -115.1416029466 -1.90E-07
    10 OT DIIS     0.80E-01    4.9     0.00000889      -115.1416030180 -7.14E-08
    11 OT DIIS     0.80E-01    4.9     0.00000519      -115.1416030389 -2.10E-08
    12 OT DIIS     0.80E-01    4.9     0.00000465      -115.1416030449 -5.94E-09
    13 OT DIIS     0.80E-01    4.9     0.00000338      -115.1416030475 -2.64E-09
    14 OT DIIS     0.80E-01    4.9     0.00000152      -115.1416030492 -1.71E-09
    15 OT DIIS     0.80E-01    4.9     0.00000084      -115.1416030498 -5.55E-10

  *** SCF run converged in    15 steps ***


  Electronic density on regular grids:        -69.9999999990        0.0000000010
  Core density on regular grids:               69.9999999957       -0.0000000043
  Total charge density on r-space grids:       -0.0000000033
  Total charge density g-space grids:          -0.0000000033

  Overlap energy of the core charge distribution:               0.00000658232499
  Self energy of the core charge distribution:               -278.09582761455005
  Core Hamiltonian energy:                                     84.63577155751202
  Hartree energy:                                             112.35370339616998
  Exchange-correlation energy:                                -31.96443455399065
  QM/MM Electrostatic energy:                                  -2.07082241723611

  Total energy:                                              -115.14160304976983

  outer SCF iter =    1 RMS gradient =   0.84E-06 energy =       -115.1416030498
  outer SCF loop converged in   1 iterations or   15 steps


 ENERGY| Total FORCE_EVAL ( QMMM ) energy (a.u.):           -252.908036765935549


 *******************************************************************************
 ENSEMBLE TYPE                =                                              NVT
 STEP NUMBER                  =                                                1
 TIME [fs]                    =                                         1.000000
 CONSERVED QUANTITY [hartree] =                              -0.209034371586E+03

                                              INSTANTANEOUS             AVERAGES
 CPU TIME [s]                 =                      393.19               393.19
 ENERGY DRIFT PER ATOM [K]    =          0.346791377902E+00   0.000000000000E+00
 POTENTIAL ENERGY[hartree]    =         -0.252908036766E+03  -0.252908036766E+03
 TOTAL KINETIC ENERGY[hartree]=          0.438702913439E+02   0.438702913439E+02
 QM KINETIC ENERGY[hartree]   =          0.345760913909E-01   0.345760913909E-01
 TOTAL TEMPERATURE[K]         =                     298.620              298.620
 QM TEMPERATURE[K]            =                     330.856              330.856
 *******************************************************************************


  Translating the system in order to center the QM fragment in the QM box.

 Number of electrons:                                                         70
 Number of occupied orbitals:                                                 35
 Number of molecular orbitals:                                                35

 Number of orbital functions:                                                222
 Number of independent orbital functions:                                    222

 Extrapolation method: ASPC


 SCF WAVEFUNCTION OPTIMIZATION

  ----------------------------------- OT ---------------------------------------
  Minimizer      : DIIS                : direct inversion
                                         in the iterative subspace
                                         using   7 DIIS vectors
                                         safer DIIS on
  Preconditioner : FULL_SINGLE_INVERSE : inversion of 
                                         H + eS - 2*(Sc)(c^T*H*c+const)(Sc)^T
  Precond_solver : DEFAULT
  stepsize       :    0.08000000                  energy_gap     :    0.08000000
  eps_taylor     :   0.10000E-15                  max_taylor     :             4
  ----------------------------------- OT ---------------------------------------

  Step     Update method      Time    Convergence         Total energy    Change
  ------------------------------------------------------------------------------
     1 OT DIIS     0.80E-01    4.0     0.00090529      -115.1980528564 -1.15E+02
     2 OT DIIS     0.80E-01    4.9     0.00050825      -115.1983563566 -3.04E-04
     3 OT DIIS     0.80E-01    4.9     0.00037309      -115.1984276107 -7.13E-05
     4 OT DIIS     0.80E-01    4.9     0.00017799      -115.1984714017 -4.38E-05
     5 OT DIIS     0.80E-01    4.9     0.00010391      -115.1984821777 -1.08E-05
     6 OT DIIS     0.80E-01    4.9     0.00008267      -115.1984841673 -1.99E-06
     7 OT DIIS     0.80E-01    4.9     0.00003133      -115.1984853777 -1.21E-06
     8 OT DIIS     0.80E-01    4.9     0.00001455      -115.1984856494 -2.72E-07
     9 OT DIIS     0.80E-01    4.9     0.00000835      -115.1984857139 -6.46E-08
    10 OT DIIS     0.80E-01    4.9     0.00000595      -115.1984857287 -1.48E-08
    11 OT DIIS     0.80E-01    4.9     0.00000338      -115.1984857366 -7.95E-09
    12 OT DIIS     0.80E-01    4.9     0.00000220      -115.1984857389 -2.29E-09
    13 OT DIIS     0.80E-01    4.9     0.00000129      -115.1984857400 -1.06E-09
    14 OT DIIS     0.80E-01    4.9     0.00000116      -115.1984857404 -4.03E-10
    15 OT DIIS     0.80E-01    4.9     0.00000072      -115.1984857406 -1.92E-10

  *** SCF run converged in    15 steps ***


  Electronic density on regular grids:        -70.0000000028       -0.0000000028
  Core density on regular grids:               69.9999999957       -0.0000000043
  Total charge density on r-space grids:       -0.0000000071
  Total charge density g-space grids:          -0.0000000071

  Overlap energy of the core charge distribution:               0.00000515643383
  Self energy of the core charge distribution:               -278.09582761455005
  Core Hamiltonian energy:                                     84.57410849716484
  Hartree energy:                                             112.39271086210266
  Exchange-correlation energy:                                -31.94617527396208
  QM/MM Electrostatic energy:                                  -2.12330736777259

  Total energy:                                              -115.19848574058339

  outer SCF iter =    1 RMS gradient =   0.72E-06 energy =       -115.1984857406
  outer SCF loop converged in   1 iterations or   15 steps


 ENERGY| Total FORCE_EVAL ( QMMM ) energy (a.u.):           -253.047482488136637


 *******************************************************************************
 ENSEMBLE TYPE                =                                              NVT
 STEP NUMBER                  =                                                2
 TIME [fs]                    =                                         2.000000
 CONSERVED QUANTITY [hartree] =                              -0.209059276818E+03

                                              INSTANTANEOUS             AVERAGES
 CPU TIME [s]                 =                      126.08               259.64
 ENERGY DRIFT PER ATOM [K]    =          0.925091412868E-01   0.462545706434E-01
 POTENTIAL ENERGY[hartree]    =         -0.253047482488E+03  -0.252977759627E+03
 TOTAL KINETIC ENERGY[hartree]=          0.439819059273E+02   0.439260986356E+02
 QM KINETIC ENERGY[hartree]   =          0.383698960292E-01   0.364729937100E-01
 TOTAL TEMPERATURE[K]         =                     299.380              299.000
 QM TEMPERATURE[K]            =                     367.159              349.007
 *******************************************************************************


  Translating the system in order to center the QM fragment in the QM box.

 Number of electrons:                                                         70
 Number of occupied orbitals:                                                 35
 Number of molecular orbitals:                                                35

 Number of orbital functions:                                                222
 Number of independent orbital functions:                                    222

 Extrapolation method: ASPC


 SCF WAVEFUNCTION OPTIMIZATION

  ----------------------------------- OT ---------------------------------------
  Minimizer      : DIIS                : direct inversion
                                         in the iterative subspace
                                         using   7 DIIS vectors
                                         safer DIIS on
  Preconditioner : FULL_SINGLE_INVERSE : inversion of 
                                         H + eS - 2*(Sc)(c^T*H*c+const)(Sc)^T
  Precond_solver : DEFAULT
  stepsize       :    0.08000000                  energy_gap     :    0.08000000
  eps_taylor     :   0.10000E-15                  max_taylor     :             4
  ----------------------------------- OT ---------------------------------------

  Step     Update method      Time    Convergence         Total energy    Change
  ------------------------------------------------------------------------------
     1 OT DIIS     0.80E-01    4.0     0.00051129      -115.2187605272 -1.15E+02
     2 OT DIIS     0.80E-01    4.9     0.00037936      -115.2188256299 -6.51E-05
     3 OT DIIS     0.80E-01    4.9     0.00017298      -115.2188490108 -2.34E-05
     4 OT DIIS     0.80E-01    4.9     0.00007705      -115.2188586171 -9.61E-06
     5 OT DIIS     0.80E-01    4.9     0.00004888      -115.2188609792 -2.36E-06
     6 OT DIIS     0.80E-01    4.9     0.00003492      -115.2188616422 -6.63E-07
     7 OT DIIS     0.80E-01    4.9     0.00001850      -115.2188618817 -2.40E-07
     8 OT DIIS     0.80E-01    4.9     0.00000848      -115.2188619452 -6.35E-08
     9 OT DIIS     0.80E-01    4.9     0.00000466      -115.2188619636 -1.84E-08
    10 OT DIIS     0.80E-01    4.9     0.00000378      -115.2188619671 -3.45E-09
    11 OT DIIS     0.80E-01    4.9     0.00000172      -115.2188619698 -2.74E-09
    12 OT DIIS     0.80E-01    4.9     0.00000113      -115.2188619705 -6.26E-10
    13 OT DIIS     0.80E-01    4.9     0.00000058      -115.2188619708 -3.26E-10

  *** SCF run converged in    13 steps ***


  Electronic density on regular grids:        -70.0000000050       -0.0000000050
  Core density on regular grids:               69.9999999957       -0.0000000043
  Total charge density on r-space grids:       -0.0000000093
  Total charge density g-space grids:          -0.0000000093

  Overlap energy of the core charge distribution:               0.00000398004733
  Self energy of the core charge distribution:               -278.09582761455005
  Core Hamiltonian energy:                                     84.46655168836104
  Hartree energy:                                             112.46374832368127
  Exchange-correlation energy:                                -31.91286959743945
  QM/MM Electrostatic energy:                                  -2.14046875087840

  Total energy:                                              -115.21886197077825

  outer SCF iter =    1 RMS gradient =   0.58E-06 energy =       -115.2188619708
  outer SCF loop converged in   1 iterations or   13 steps


 ENERGY| Total FORCE_EVAL ( QMMM ) energy (a.u.):           -253.178573116979265


 *******************************************************************************
 ENSEMBLE TYPE                =                                              NVT
 STEP NUMBER                  =                                                3
 TIME [fs]                    =                                         3.000000
 CONSERVED QUANTITY [hartree] =                              -0.209067487501E+03

                                              INSTANTANEOUS             AVERAGES
 CPU TIME [s]                 =                      117.05               212.11
 ENERGY DRIFT PER ATOM [K]    =          0.867813085127E-02   0.337290907127E-01
 POTENTIAL ENERGY[hartree]    =         -0.253178573117E+03  -0.253044697457E+03
 TOTAL KINETIC ENERGY[hartree]=          0.441018112154E+02   0.439846694955E+02
 QM KINETIC ENERGY[hartree]   =          0.417644786321E-01   0.382368220174E-01
 TOTAL TEMPERATURE[K]         =                     300.196              299.398
 QM TEMPERATURE[K]            =                     399.641              365.885
 *******************************************************************************


  Translating the system in order to center the QM fragment in the QM box.

 Number of electrons:                                                         70
 Number of occupied orbitals:                                                 35
 Number of molecular orbitals:                                                35

 Number of orbital functions:                                                222
 Number of independent orbital functions:                                    222

 Extrapolation method: ASPC


 SCF WAVEFUNCTION OPTIMIZATION

  ----------------------------------- OT ---------------------------------------
  Minimizer      : DIIS                : direct inversion
                                         in the iterative subspace
                                         using   7 DIIS vectors
                                         safer DIIS on
  Preconditioner : FULL_SINGLE_INVERSE : inversion of 
                                         H + eS - 2*(Sc)(c^T*H*c+const)(Sc)^T
  Precond_solver : DEFAULT
  stepsize       :    0.08000000                  energy_gap     :    0.08000000
  eps_taylor     :   0.10000E-15                  max_taylor     :             4
  ----------------------------------- OT ---------------------------------------

  Step     Update method      Time    Convergence         Total energy    Change
  ------------------------------------------------------------------------------
     1 OT DIIS     0.80E-01    4.0     0.00090370      -115.2193626941 -1.15E+02
     2 OT DIIS     0.80E-01    4.9     0.00054240      -115.2195826853 -2.20E-04
     3 OT DIIS     0.80E-01    4.9     0.00026857      -115.2196363191 -5.36E-05
     4 OT DIIS     0.80E-01    4.9     0.00012010      -115.2196563089 -2.00E-05
     5 OT DIIS     0.80E-01    4.9     0.00006242      -115.2196614463 -5.14E-06
     6 OT DIIS     0.80E-01    4.9     0.00004734      -115.2196626162 -1.17E-06
     7 OT DIIS     0.80E-01    4.9     0.00001937      -115.2196631473 -5.31E-07
     8 OT DIIS     0.80E-01    4.9     0.00000985      -115.2196632516 -1.04E-07
     9 OT DIIS     0.80E-01    4.9     0.00000493      -115.2196632836 -3.20E-08
    10 OT DIIS     0.80E-01    4.9     0.00000432      -115.2196632888 -5.19E-09
    11 OT DIIS     0.80E-01    4.9     0.00000170      -115.2196632927 -3.97E-09
    12 OT DIIS     0.80E-01    4.9     0.00000099      -115.2196632934 -7.16E-10

  *** SCF run converged in    12 steps ***


  Electronic density on regular grids:        -70.0000000026       -0.0000000026
  Core density on regular grids:               69.9999999957       -0.0000000043
  Total charge density on r-space grids:       -0.0000000068
  Total charge density g-space grids:          -0.0000000068

  Overlap energy of the core charge distribution:               0.00000350876719
  Self energy of the core charge distribution:               -278.09582761455005
  Core Hamiltonian energy:                                     84.35684982660482
  Hartree energy:                                             112.53782870240019
  Exchange-correlation energy:                                -31.87835291214321
  QM/MM Electrostatic energy:                                  -2.14016480452816

  Total energy:                                              -115.21966329344923

  outer SCF iter =    1 RMS gradient =   0.99E-06 energy =       -115.2196632934
  outer SCF loop converged in   1 iterations or   12 steps


 ENERGY| Total FORCE_EVAL ( QMMM ) energy (a.u.):           -253.198568063517143


 *******************************************************************************
 ENSEMBLE TYPE                =                                              NVT
 STEP NUMBER                  =                                                4
 TIME [fs]                    =                                         4.000000
 CONSERVED QUANTITY [hartree] =                              -0.209040805047E+03

                                              INSTANTANEOUS             AVERAGES
 CPU TIME [s]                 =                      111.24               186.89
 ENERGY DRIFT PER ATOM [K]    =          0.281105784431E+00   0.955732641422E-01
 POTENTIAL ENERGY[hartree]    =         -0.253198568064E+03  -0.253083165109E+03
 TOTAL KINETIC ENERGY[hartree]=          0.441454453140E+02   0.440248634502E+02
 QM KINETIC ENERGY[hartree]   =          0.422238257388E-01   0.392335729477E-01
 TOTAL TEMPERATURE[K]         =                     300.493              299.672
 QM TEMPERATURE[K]            =                     404.037              375.423
 *******************************************************************************


  Translating the system in order to center the QM fragment in the QM box.

 Number of electrons:                                                         70
 Number of occupied orbitals:                                                 35
 Number of molecular orbitals:                                                35

 Number of orbital functions:                                                222
 Number of independent orbital functions:                                    222

 Extrapolation method: ASPC


 SCF WAVEFUNCTION OPTIMIZATION

  ----------------------------------- OT ---------------------------------------
  Minimizer      : DIIS                : direct inversion
                                         in the iterative subspace
                                         using   7 DIIS vectors
                                         safer DIIS on
  Preconditioner : FULL_SINGLE_INVERSE : inversion of 
                                         H + eS - 2*(Sc)(c^T*H*c+const)(Sc)^T
  Precond_solver : DEFAULT
  stepsize       :    0.08000000                  energy_gap     :    0.08000000
  eps_taylor     :   0.10000E-15                  max_taylor     :             4
  ----------------------------------- OT ---------------------------------------

  Step     Update method      Time    Convergence         Total energy    Change
  ------------------------------------------------------------------------------
     1 OT DIIS     0.80E-01    4.0     0.00135593      -115.1185847258 -1.15E+02
     2 OT DIIS     0.80E-01    4.9     0.00096865      -115.1190110799 -4.26E-04
     3 OT DIIS     0.80E-01    4.9     0.00044994      -115.1191500301 -1.39E-04
     4 OT DIIS     0.80E-01    4.9     0.00020029      -115.1191937433 -4.37E-05
     5 OT DIIS     0.80E-01    4.9     0.00012376      -115.1192050440 -1.13E-05
     6 OT DIIS     0.80E-01    4.9     0.00008527      -115.1192079978 -2.95E-06
     7 OT DIIS     0.80E-01    4.9     0.00004183      -115.1192096344 -1.64E-06
     8 OT DIIS     0.80E-01    4.9     0.00002118      -115.1192100650 -4.31E-07
     9 OT DIIS     0.80E-01    4.9     0.00001643      -115.1192101902 -1.25E-07
    10 OT DIIS     0.80E-01    4.9     0.00000908      -115.1192102294 -3.92E-08
    11 OT DIIS     0.80E-01    4.9     0.00000513      -115.1192102505 -2.11E-08
    12 OT DIIS     0.80E-01    4.9     0.00000300      -115.1192102569 -6.45E-09
    13 OT DIIS     0.80E-01    4.9     0.00000193      -115.1192102558  1.10E-09
    14 OT DIIS     0.80E-01    4.9     0.00000160      -115.1192102563 -5.16E-10
    15 OT DIIS     0.80E-01    4.9     0.00000095      -115.1192102567 -4.09E-10

  *** SCF run converged in    15 steps ***


  Electronic density on regular grids:        -69.9999999987        0.0000000013
  Core density on regular grids:               69.9999999957       -0.0000000043
  Total charge density on r-space grids:       -0.0000000030
  Total charge density g-space grids:          -0.0000000030

  Overlap energy of the core charge distribution:               0.00000342899839
  Self energy of the core charge distribution:               -278.09582761455005
  Core Hamiltonian energy:                                     84.27560054170060
  Hartree energy:                                             112.59590063145147
  Exchange-correlation energy:                                -31.85292835388621
  QM/MM Electrostatic energy:                                  -2.04195889043224

  Total energy:                                              -115.11921025671801

  outer SCF iter =    1 RMS gradient =   0.95E-06 energy =       -115.1192102567
  outer SCF loop converged in   1 iterations or   15 steps


 ENERGY| Total FORCE_EVAL ( QMMM ) energy (a.u.):           -253.378752700266034


 *******************************************************************************
 ENSEMBLE TYPE                =                                              NVT
 STEP NUMBER                  =                                                5
 TIME [fs]                    =                                         5.000000
 CONSERVED QUANTITY [hartree] =                              -0.209067382041E+03

                                              INSTANTANEOUS             AVERAGES
 CPU TIME [s]                 =                      126.13               174.74
 ENERGY DRIFT PER ATOM [K]    =          0.975487598213E-02   0.784095865102E-01
 POTENTIAL ENERGY[hartree]    =         -0.253378752700E+03  -0.253142282627E+03
 TOTAL KINETIC ENERGY[hartree]=          0.442959262546E+02   0.440790760111E+02
 QM KINETIC ENERGY[hartree]   =          0.416148648301E-01   0.397098313242E-01
 TOTAL TEMPERATURE[K]         =                     301.517              300.041
 QM TEMPERATURE[K]            =                     398.210              379.981
 *******************************************************************************


  Translating the system in order to center the QM fragment in the QM box.

 Number of electrons:                                                         70
 Number of occupied orbitals:                                                 35
 Number of molecular orbitals:                                                35

 Number of orbital functions:                                                222
 Number of independent orbital functions:                                    222

 Extrapolation method: ASPC


 SCF WAVEFUNCTION OPTIMIZATION

  ----------------------------------- OT ---------------------------------------
  Minimizer      : DIIS                : direct inversion
                                         in the iterative subspace
                                         using   7 DIIS vectors
                                         safer DIIS on
  Preconditioner : FULL_SINGLE_INVERSE : inversion of 
                                         H + eS - 2*(Sc)(c^T*H*c+const)(Sc)^T
  Precond_solver : DEFAULT
  stepsize       :    0.08000000                  energy_gap     :    0.08000000
  eps_taylor     :   0.10000E-15                  max_taylor     :             4
  ----------------------------------- OT ---------------------------------------

  Step     Update method      Time    Convergence         Total energy    Change
  ------------------------------------------------------------------------------
     1 OT DIIS     0.80E-01    4.0     0.00107802      -115.0348706227 -1.15E+02
     2 OT DIIS     0.80E-01    4.9     0.00051922      -115.0352440382 -3.73E-04
     3 OT DIIS     0.80E-01    4.9     0.00029804      -115.0353117086 -6.77E-05
     4 OT DIIS     0.80E-01    4.9     0.00014280      -115.0353405235 -2.88E-05
     5 OT DIIS     0.80E-01    4.9     0.00006401      -115.0353482841 -7.76E-06
     6 OT DIIS     0.80E-01    4.9     0.00003580      -115.0353508513 -2.57E-06
     7 OT DIIS     0.80E-01    4.9     0.00002241      -115.0353514516 -6.00E-07
     8 OT DIIS     0.80E-01    4.9     0.00001505      -115.0353517020 -2.50E-07
     9 OT DIIS     0.80E-01    4.9     0.00000839      -115.0353517898 -8.78E-08
    10 OT DIIS     0.80E-01    4.9     0.00000405      -115.0353518418 -5.20E-08
    11 OT DIIS     0.80E-01    4.9     0.00000289      -115.0353518531 -1.13E-08
    12 OT DIIS     0.80E-01    4.9     0.00000173      -115.0353518566 -3.50E-09
    13 OT DIIS     0.80E-01    4.9     0.00000098      -115.0353518579 -1.26E-09

  *** SCF run converged in    13 steps ***


  Electronic density on regular grids:        -69.9999999975        0.0000000025
  Core density on regular grids:               69.9999999957       -0.0000000043
  Total charge density on r-space grids:       -0.0000000018
  Total charge density g-space grids:          -0.0000000018

  Overlap energy of the core charge distribution:               0.00000364403679
  Self energy of the core charge distribution:               -278.09582761455005
  Core Hamiltonian energy:                                     84.24374520321496
  Hartree energy:                                             112.61934693453833
  Exchange-correlation energy:                                -31.84411808300406
  QM/MM Electrostatic energy:                                  -1.95850194212238

  Total energy:                                              -115.03535185788643

  outer SCF iter =    1 RMS gradient =   0.98E-06 energy =       -115.0353518579
  outer SCF loop converged in   1 iterations or   13 steps


 ENERGY| Total FORCE_EVAL ( QMMM ) energy (a.u.):           -253.435868564892104


 *******************************************************************************
 ENSEMBLE TYPE                =                                              NVT
 STEP NUMBER                  =                                                6
 TIME [fs]                    =                                         6.000000
 CONSERVED QUANTITY [hartree] =                              -0.209045536056E+03

                                              INSTANTANEOUS             AVERAGES
 CPU TIME [s]                 =                      116.23               164.99
 ENERGY DRIFT PER ATOM [K]    =          0.232802223579E+00   0.104141692688E+00
 POTENTIAL ENERGY[hartree]    =         -0.253435868565E+03  -0.253191213617E+03
 TOTAL KINETIC ENERGY[hartree]=          0.443716507183E+02   0.441278384623E+02
 QM KINETIC ENERGY[hartree]   =          0.425488087172E-01   0.401829942230E-01
 TOTAL TEMPERATURE[K]         =                     302.033              300.373
 QM TEMPERATURE[K]            =                     407.147              384.508
 *******************************************************************************


  Translating the system in order to center the QM fragment in the QM box.

 Number of electrons:                                                         70
 Number of occupied orbitals:                                                 35
 Number of molecular orbitals:                                                35

 Number of orbital functions:                                                222
 Number of independent orbital functions:                                    222

 Extrapolation method: ASPC


 SCF WAVEFUNCTION OPTIMIZATION

  ----------------------------------- OT ---------------------------------------
  Minimizer      : DIIS                : direct inversion
                                         in the iterative subspace
                                         using   7 DIIS vectors
                                         safer DIIS on
  Preconditioner : FULL_SINGLE_INVERSE : inversion of 
                                         H + eS - 2*(Sc)(c^T*H*c+const)(Sc)^T
  Precond_solver : DEFAULT
  stepsize       :    0.08000000                  energy_gap     :    0.08000000
  eps_taylor     :   0.10000E-15                  max_taylor     :             4
  ----------------------------------- OT ---------------------------------------

  Step     Update method      Time    Convergence         Total energy    Change
  ------------------------------------------------------------------------------
     1 OT DIIS     0.80E-01    4.0     0.00078639      -114.9403423524 -1.15E+02
     2 OT DIIS     0.80E-01    4.9     0.00042592      -114.9405364225 -1.94E-04
     3 OT DIIS     0.80E-01    4.9     0.00027166      -114.9405731042 -3.67E-05
     4 OT DIIS     0.80E-01    4.9     0.00012401      -114.9405919375 -1.88E-05
     5 OT DIIS     0.80E-01    4.9     0.00006453      -114.9405972365 -5.30E-06
     6 OT DIIS     0.80E-01    4.9     0.00005346      -114.9405986729 -1.44E-06
     7 OT DIIS     0.80E-01    4.9     0.00001997      -114.9405994428 -7.70E-07
     8 OT DIIS     0.80E-01    4.9     0.00001179      -114.9405996269 -1.84E-07
     9 OT DIIS     0.80E-01    4.9     0.00000633      -114.9405996873 -6.05E-08
    10 OT DIIS     0.80E-01    4.9     0.00000562      -114.9405997069 -1.95E-08
    11 OT DIIS     0.80E-01    4.9     0.00000252      -114.9405997141 -7.25E-09
    12 OT DIIS     0.80E-01    4.9     0.00000130      -114.9405997167 -2.57E-09
    13 OT DIIS     0.80E-01    4.9     0.00000077      -114.9405997174 -7.23E-10

  *** SCF run converged in    13 steps ***


  Electronic density on regular grids:        -69.9999999964        0.0000000036
  Core density on regular grids:               69.9999999957       -0.0000000043
  Total charge density on r-space grids:       -0.0000000007
  Total charge density g-space grids:          -0.0000000007

  Overlap energy of the core charge distribution:               0.00000415848581
  Self energy of the core charge distribution:               -278.09582761455005
  Core Hamiltonian energy:                                     84.26838585707662
  Hartree energy:                                             112.60321646338356
  Exchange-correlation energy:                                -31.85411044057113
  QM/MM Electrostatic energy:                                  -1.86226814123083

  Total energy:                                              -114.94059971740602

  outer SCF iter =    1 RMS gradient =   0.77E-06 energy =       -114.9405997174
  outer SCF loop converged in   1 iterations or   13 steps


 ENERGY| Total FORCE_EVAL ( QMMM ) energy (a.u.):           -253.586454398784468


 *******************************************************************************
 ENSEMBLE TYPE                =                                              NVT
 STEP NUMBER                  =                                                7
 TIME [fs]                    =                                         7.000000
 CONSERVED QUANTITY [hartree] =                              -0.209055750508E+03

                                              INSTANTANEOUS             AVERAGES
 CPU TIME [s]                 =                      116.24               158.02
 ENERGY DRIFT PER ATOM [K]    =          0.128512739288E+00   0.107623270774E+00
 POTENTIAL ENERGY[hartree]    =         -0.253586454399E+03  -0.253247676586E+03
 TOTAL KINETIC ENERGY[hartree]=          0.445086552258E+02   0.441822408571E+02
 QM KINETIC ENERGY[hartree]   =          0.456518190295E-01   0.409642549097E-01
 TOTAL TEMPERATURE[K]         =                     302.965              300.743
 QM TEMPERATURE[K]            =                     436.839              391.984
 *******************************************************************************


  Translating the system in order to center the QM fragment in the QM box.

 Number of electrons:                                                         70
 Number of occupied orbitals:                                                 35
 Number of molecular orbitals:                                                35

 Number of orbital functions:                                                222
 Number of independent orbital functions:                                    222

 Extrapolation method: ASPC


 SCF WAVEFUNCTION OPTIMIZATION

  ----------------------------------- OT ---------------------------------------
  Minimizer      : DIIS                : direct inversion
                                         in the iterative subspace
                                         using   7 DIIS vectors
                                         safer DIIS on
  Preconditioner : FULL_SINGLE_INVERSE : inversion of 
                                         H + eS - 2*(Sc)(c^T*H*c+const)(Sc)^T
  Precond_solver : DEFAULT
  stepsize       :    0.08000000                  energy_gap     :    0.08000000
  eps_taylor     :   0.10000E-15                  max_taylor     :             4
  ----------------------------------- OT ---------------------------------------

  Step     Update method      Time    Convergence         Total energy    Change
  ------------------------------------------------------------------------------
     1 OT DIIS     0.80E-01    4.0     0.00063279      -114.8429162913 -1.15E+02
     2 OT DIIS     0.80E-01    4.9     0.00032724      -114.8430349117 -1.19E-04
     3 OT DIIS     0.80E-01    4.9     0.00016669      -114.8430577611 -2.28E-05
     4 OT DIIS     0.80E-01    4.9     0.00008270      -114.8430660034 -8.24E-06
     5 OT DIIS     0.80E-01    4.9     0.00004878      -114.8430678564 -1.85E-06
     6 OT DIIS     0.80E-01    4.9     0.00002598      -114.8430685934 -7.37E-07
     7 OT DIIS     0.80E-01    4.9     0.00001086      -114.8430688743 -2.81E-07
     8 OT DIIS     0.80E-01    4.9     0.00000574      -114.8430689179 -4.37E-08
     9 OT DIIS     0.80E-01    4.9     0.00000334      -114.8430689321 -1.42E-08
    10 OT DIIS     0.80E-01    4.9     0.00000257      -114.8430689377 -5.64E-09
    11 OT DIIS     0.80E-01    4.9     0.00000136      -114.8430689400 -2.26E-09
    12 OT DIIS     0.80E-01    4.9     0.00000069      -114.8430689408 -7.66E-10

  *** SCF run converged in    12 steps ***


  Electronic density on regular grids:        -69.9999999951        0.0000000049
  Core density on regular grids:               69.9999999956       -0.0000000044
  Total charge density on r-space grids:        0.0000000006
  Total charge density g-space grids:           0.0000000006

  Overlap energy of the core charge distribution:               0.00000497511003
  Self energy of the core charge distribution:               -278.09582761455005
  Core Hamiltonian energy:                                     84.34414041932376
  Hartree energy:                                             112.55189978891528
  Exchange-correlation energy:                                -31.88060533215978
  QM/MM Electrostatic energy:                                  -1.76268117739219

  Total energy:                                              -114.84306894075296

  outer SCF iter =    1 RMS gradient =   0.69E-06 energy =       -114.8430689408
  outer SCF loop converged in   1 iterations or   12 steps


 ENERGY| Total FORCE_EVAL ( QMMM ) energy (a.u.):           -253.694319288133329


 *******************************************************************************
 ENSEMBLE TYPE                =                                              NVT
 STEP NUMBER                  =                                                8
 TIME [fs]                    =                                         8.000000
 CONSERVED QUANTITY [hartree] =                              -0.209078452517E+03

                                              INSTANTANEOUS             AVERAGES
 CPU TIME [s]                 =                      111.55               152.21
 ENERGY DRIFT PER ATOM [K]    =         -0.103274594797E+00   0.812610375776E-01
 POTENTIAL ENERGY[hartree]    =         -0.253694319288E+03  -0.253303506923E+03
 TOTAL KINETIC ENERGY[hartree]=          0.445902961799E+02   0.442332477724E+02
 QM KINETIC ENERGY[hartree]   =          0.492458111963E-01   0.419994494455E-01
 TOTAL TEMPERATURE[K]         =                     303.521              301.090
 QM TEMPERATURE[K]            =                     471.230              401.890
 *******************************************************************************


  Translating the system in order to center the QM fragment in the QM box.

 Number of electrons:                                                         70
 Number of occupied orbitals:                                                 35
 Number of molecular orbitals:                                                35

 Number of orbital functions:                                                222
 Number of independent orbital functions:                                    222

 Extrapolation method: ASPC


 SCF WAVEFUNCTION OPTIMIZATION

  ----------------------------------- OT ---------------------------------------
  Minimizer      : DIIS                : direct inversion
                                         in the iterative subspace
                                         using   7 DIIS vectors
                                         safer DIIS on
  Preconditioner : FULL_SINGLE_INVERSE : inversion of 
                                         H + eS - 2*(Sc)(c^T*H*c+const)(Sc)^T
  Precond_solver : DEFAULT
  stepsize       :    0.08000000                  energy_gap     :    0.08000000
  eps_taylor     :   0.10000E-15                  max_taylor     :             4
  ----------------------------------- OT ---------------------------------------

  Step     Update method      Time    Convergence         Total energy    Change
  ------------------------------------------------------------------------------
     1 OT DIIS     0.80E-01    4.0     0.00070693      -114.7956879305 -1.15E+02
     2 OT DIIS     0.80E-01    4.9     0.00034985      -114.7958450027 -1.57E-04
     3 OT DIIS     0.80E-01    4.9     0.00018272      -114.7958749670 -3.00E-05
     4 OT DIIS     0.80E-01    4.9     0.00008412      -114.7958865400 -1.16E-05
     5 OT DIIS     0.80E-01    4.9     0.00004826      -114.7958887601 -2.22E-06
     6 OT DIIS     0.80E-01    4.9     0.00002606      -114.7958895781 -8.18E-07
     7 OT DIIS     0.80E-01    4.9     0.00001203      -114.7958899238 -3.46E-07
     8 OT DIIS     0.80E-01    4.9     0.00000624      -114.7958899754 -5.15E-08
     9 OT DIIS     0.80E-01    4.9     0.00000366      -114.7958899563  1.91E-08
    10 OT DIIS     0.80E-01    4.9     0.00000259      -114.7958899620 -5.74E-09
    11 OT DIIS     0.80E-01    4.9     0.00000116      -114.7958899647 -2.74E-09
    12 OT DIIS     0.80E-01    4.9     0.00000064      -114.7958899655 -7.51E-10

  *** SCF run converged in    12 steps ***


  Electronic density on regular grids:        -69.9999999946        0.0000000054
  Core density on regular grids:               69.9999999957       -0.0000000043
  Total charge density on r-space grids:        0.0000000011
  Total charge density g-space grids:           0.0000000011

  Overlap energy of the core charge distribution:               0.00000603102583
  Self energy of the core charge distribution:               -278.09582761455005
  Core Hamiltonian energy:                                     84.45404985475072
  Hartree energy:                                             112.47716731904444
  Exchange-correlation energy:                                -31.91721890103880
  QM/MM Electrostatic energy:                                  -1.71406665471784

  Total energy:                                              -114.79588996548570

  outer SCF iter =    1 RMS gradient =   0.64E-06 energy =       -114.7958899655
  outer SCF loop converged in   1 iterations or   12 steps


 ENERGY| Total FORCE_EVAL ( QMMM ) energy (a.u.):           -253.525689531176198


 *******************************************************************************
 ENSEMBLE TYPE                =                                              NVT
 STEP NUMBER                  =                                                9
 TIME [fs]                    =                                         9.000000
 CONSERVED QUANTITY [hartree] =                              -0.209039493956E+03

                                              INSTANTANEOUS             AVERAGES
 CPU TIME [s]                 =                      111.37               147.68
 ENERGY DRIFT PER ATOM [K]    =          0.294492017871E+00   0.104953368721E+00
 POTENTIAL ENERGY[hartree]    =         -0.253525689531E+03  -0.253328193880E+03
 TOTAL KINETIC ENERGY[hartree]=          0.444569461196E+02   0.442581031443E+02
 QM KINETIC ENERGY[hartree]   =          0.507149629271E-01   0.429678398324E-01
 TOTAL TEMPERATURE[K]         =                     302.613              301.260
 QM TEMPERATURE[K]            =                     485.288              411.156
 *******************************************************************************


  Translating the system in order to center the QM fragment in the QM box.

 Number of electrons:                                                         70
 Number of occupied orbitals:                                                 35
 Number of molecular orbitals:                                                35

 Number of orbital functions:                                                222
 Number of independent orbital functions:                                    222

 Extrapolation method: ASPC


 SCF WAVEFUNCTION OPTIMIZATION

  ----------------------------------- OT ---------------------------------------
  Minimizer      : DIIS                : direct inversion
                                         in the iterative subspace
                                         using   7 DIIS vectors
                                         safer DIIS on
  Preconditioner : FULL_SINGLE_INVERSE : inversion of 
                                         H + eS - 2*(Sc)(c^T*H*c+const)(Sc)^T
  Precond_solver : DEFAULT
  stepsize       :    0.08000000                  energy_gap     :    0.08000000
  eps_taylor     :   0.10000E-15                  max_taylor     :             4
  ----------------------------------- OT ---------------------------------------

  Step     Update method      Time    Convergence         Total energy    Change
  ------------------------------------------------------------------------------
     1 OT DIIS     0.80E-01    4.0     0.00044017      -114.7344562449 -1.15E+02
     2 OT DIIS     0.80E-01    4.9     0.00022634      -114.7345259451 -6.97E-05
     3 OT DIIS     0.80E-01    4.9     0.00014424      -114.7345421337 -1.62E-05
     4 OT DIIS     0.80E-01    4.9     0.00007379      -114.7345505354 -8.40E-06
     5 OT DIIS     0.80E-01    4.9     0.00003370      -114.7345527472 -2.21E-06
     6 OT DIIS     0.80E-01    4.9     0.00002051      -114.7345532420 -4.95E-07
     7 OT DIIS     0.80E-01    4.9     0.00001045      -114.7345533966 -1.55E-07
     8 OT DIIS     0.80E-01    4.9     0.00000598      -114.7345534087 -1.22E-08
     9 OT DIIS     0.80E-01    4.9     0.00000303      -114.7345534235 -1.47E-08
    10 OT DIIS     0.80E-01    4.9     0.00000163      -114.7345534299 -6.41E-09
    11 OT DIIS     0.80E-01    4.9     0.00000112      -114.7345534312 -1.36E-09
    12 OT DIIS     0.80E-01    4.9     0.00000071      -114.7345534318 -5.19E-10

  *** SCF run converged in    12 steps ***


  Electronic density on regular grids:        -69.9999999932        0.0000000068
  Core density on regular grids:               69.9999999956       -0.0000000044
  Total charge density on r-space grids:        0.0000000025
  Total charge density g-space grids:           0.0000000025

  Overlap energy of the core charge distribution:               0.00000724683669
  Self energy of the core charge distribution:               -278.09582761455005
  Core Hamiltonian energy:                                     84.56173159982804
  Hartree energy:                                             112.40518280296742
  Exchange-correlation energy:                                -31.95126556709361
  QM/MM Electrostatic energy:                                  -1.65438189974848

  Total energy:                                              -114.73455343176003

  outer SCF iter =    1 RMS gradient =   0.71E-06 energy =       -114.7345534318
  outer SCF loop converged in   1 iterations or   12 steps


 ENERGY| Total FORCE_EVAL ( QMMM ) energy (a.u.):           -253.550019650180275


 *******************************************************************************
 ENSEMBLE TYPE                =                                              NVT
 STEP NUMBER                  =                                               10
 TIME [fs]                    =                                        10.000000
 CONSERVED QUANTITY [hartree] =                              -0.209059891250E+03

                                              INSTANTANEOUS             AVERAGES
 CPU TIME [s]                 =                      111.19               144.03
 ENERGY DRIFT PER ATOM [K]    =          0.862357974204E-01   0.103081611591E+00
 POTENTIAL ENERGY[hartree]    =         -0.253550019650E+03  -0.253350376457E+03
 TOTAL KINETIC ENERGY[hartree]=          0.444570651661E+02   0.442779993465E+02
 QM KINETIC ENERGY[hartree]   =          0.486831470172E-01   0.435393705508E-01
 TOTAL TEMPERATURE[K]         =                     302.614              301.395
 QM TEMPERATURE[K]            =                     465.846              416.625
 *******************************************************************************


  Translating the system in order to center the QM fragment in the QM box.

 Number of electrons:                                                         70
 Number of occupied orbitals:                                                 35
 Number of molecular orbitals:                                                35

 Number of orbital functions:                                                222
 Number of independent orbital functions:                                    222

 Extrapolation method: ASPC


 SCF WAVEFUNCTION OPTIMIZATION

  ----------------------------------- OT ---------------------------------------
  Minimizer      : DIIS                : direct inversion
                                         in the iterative subspace
                                         using   7 DIIS vectors
                                         safer DIIS on
  Preconditioner : FULL_SINGLE_INVERSE : inversion of 
                                         H + eS - 2*(Sc)(c^T*H*c+const)(Sc)^T
  Precond_solver : DEFAULT
  stepsize       :    0.08000000                  energy_gap     :    0.08000000
  eps_taylor     :   0.10000E-15                  max_taylor     :             4
  ----------------------------------- OT ---------------------------------------

  Step     Update method      Time    Convergence         Total energy    Change
  ------------------------------------------------------------------------------
     1 OT DIIS     0.80E-01    4.0     0.00055210      -114.6376995749 -1.15E+02
     2 OT DIIS     0.80E-01    4.9     0.00027440      -114.6378168740 -1.17E-04
     3 OT DIIS     0.80E-01    4.9     0.00017021      -114.6378452221 -2.83E-05
     4 OT DIIS     0.80E-01    4.9     0.00007603      -114.6378583562 -1.31E-05
     5 OT DIIS     0.80E-01    4.9     0.00004540      -114.6378608293 -2.47E-06
     6 OT DIIS     0.80E-01    4.9     0.00002332      -114.6378614549 -6.26E-07
     7 OT DIIS     0.80E-01    4.9     0.00000887      -114.6378616571 -2.02E-07
     8 OT DIIS     0.80E-01    4.9     0.00000513      -114.6378616770 -1.99E-08
     9 OT DIIS     0.80E-01    4.9     0.00000286      -114.6378616891 -1.21E-08
    10 OT DIIS     0.80E-01    4.9     0.00000177      -114.6378616924 -3.31E-09
    11 OT DIIS     0.80E-01    4.9     0.00000073      -114.6378616942 -1.83E-09

  *** SCF run converged in    11 steps ***


  Electronic density on regular grids:        -70.0000000002       -0.0000000002
  Core density on regular grids:               69.9999999957       -0.0000000043
  Total charge density on r-space grids:       -0.0000000045
  Total charge density g-space grids:          -0.0000000045

  Overlap energy of the core charge distribution:               0.00000837042955
  Self energy of the core charge distribution:               -278.09582761455005
  Core Hamiltonian energy:                                     84.62950071347083
  Hartree energy:                                             112.35924088289160
  Exchange-correlation energy:                                -31.97154502192938
  QM/MM Electrostatic energy:                                  -1.55923902456025

  Total energy:                                              -114.63786169424769

  outer SCF iter =    1 RMS gradient =   0.73E-06 energy =       -114.6378616942
  outer SCF loop converged in   1 iterations or   11 steps


 ENERGY| Total FORCE_EVAL ( QMMM ) energy (a.u.):           -253.567303800411594


 *******************************************************************************
 ENSEMBLE TYPE                =                                              NVT
 STEP NUMBER                  =                                               11
 TIME [fs]                    =                                        11.000000
 CONSERVED QUANTITY [hartree] =                              -0.209061957457E+03

                                              INSTANTANEOUS             AVERAGES
 CPU TIME [s]                 =                      106.22               140.59
 ENERGY DRIFT PER ATOM [K]    =          0.651398365330E-01   0.996323593132E-01
 POTENTIAL ENERGY[hartree]    =         -0.253567303800E+03  -0.253370097124E+03
 TOTAL KINETIC ENERGY[hartree]=          0.444683318398E+02   0.442953023004E+02
 QM KINETIC ENERGY[hartree]   =          0.451939696036E-01   0.436897886465E-01
 TOTAL TEMPERATURE[K]         =                     302.691              301.513
 QM TEMPERATURE[K]            =                     432.458              418.064
 *******************************************************************************


  Translating the system in order to center the QM fragment in the QM box.

 Number of electrons:                                                         70
 Number of occupied orbitals:                                                 35
 Number of molecular orbitals:                                                35

 Number of orbital functions:                                                222
 Number of independent orbital functions:                                    222

 Extrapolation method: ASPC


 SCF WAVEFUNCTION OPTIMIZATION

  ----------------------------------- OT ---------------------------------------
  Minimizer      : DIIS                : direct inversion
                                         in the iterative subspace
                                         using   7 DIIS vectors
                                         safer DIIS on
  Preconditioner : FULL_SINGLE_INVERSE : inversion of 
                                         H + eS - 2*(Sc)(c^T*H*c+const)(Sc)^T
  Precond_solver : DEFAULT
  stepsize       :    0.08000000                  energy_gap     :    0.08000000
  eps_taylor     :   0.10000E-15                  max_taylor     :             4
  ----------------------------------- OT ---------------------------------------

  Step     Update method      Time    Convergence         Total energy    Change
  ------------------------------------------------------------------------------
     1 OT DIIS     0.80E-01    4.0     0.00059991      -114.5470838008 -1.15E+02
     2 OT DIIS     0.80E-01    4.9     0.00029262      -114.5472154219 -1.32E-04
     3 OT DIIS     0.80E-01    4.9     0.00016797      -114.5472468816 -3.15E-05
     4 OT DIIS     0.80E-01    4.9     0.00007498      -114.5472625965 -1.57E-05
     5 OT DIIS     0.80E-01    4.9     0.00004117      -114.5472650432 -2.45E-06
     6 OT DIIS     0.80E-01    4.9     0.00002197      -114.5472657405 -6.97E-07
     7 OT DIIS     0.80E-01    4.9     0.00000968      -114.5472659070 -1.67E-07
     8 OT DIIS     0.80E-01    4.9     0.00000508      -114.5472659401 -3.30E-08
     9 OT DIIS     0.80E-01    4.9     0.00000274      -114.5472659499 -9.84E-09
    10 OT DIIS     0.80E-01    4.9     0.00000155      -114.5472659533 -3.39E-09
    11 OT DIIS     0.80E-01    4.9     0.00000084      -114.5472659543 -9.55E-10

  *** SCF run converged in    11 steps ***


  Electronic density on regular grids:        -70.0000000045       -0.0000000045
  Core density on regular grids:               69.9999999958       -0.0000000042
[...]
 -                                                                             -
 -                                DBCSR STATISTICS                             -
 -                                                                             -
 -------------------------------------------------------------------------------
 COUNTER                                    TOTAL       BLAS       SMM       ACC
 flops     5 x     3 x     3                60480       0.0%    100.0%      0.0%
 flops     3 x     3 x     3               160596       0.0%    100.0%      0.0%
 flops    13 x     3 x     3               275184       0.0%    100.0%      0.0%
 flops     5 x    32 x     3               322560       0.0%    100.0%      0.0%
 flops     5 x     3 x    32               322560       0.0%    100.0%      0.0%
 flops     3 x     3 x    13               952848       0.0%    100.0%      0.0%
 flops    13 x    32 x     3              1467648       0.0%    100.0%      0.0%
 flops    13 x     3 x    32              1467648       0.0%    100.0%      0.0%
 flops     3 x     3 x    32              1713024       0.0%    100.0%      0.0%
 flops     3 x    32 x     3              1713024       0.0%    100.0%      0.0%
 flops    32 x     3 x     3              1713024       0.0%    100.0%      0.0%
 flops     3 x     3 x    26              1905696       0.0%    100.0%      0.0%
 flops    49 x     3 x     3              2170602       0.0%    100.0%      0.0%
 flops    54 x     3 x     3              2392092       0.0%    100.0%      0.0%
 flops    57 x     3 x     3              2524986       0.0%    100.0%      0.0%
 flops    62 x     3 x     3              2746476       0.0%    100.0%      0.0%
 flops     5 x     5 x     3              3418200       0.0%    100.0%      0.0%
 flops    49 x     3 x    13              4211844       0.0%    100.0%      0.0%
 flops    54 x     3 x    13              4641624       0.0%    100.0%      0.0%
 flops    57 x     3 x    13              4899492       0.0%    100.0%      0.0%
 flops     3 x     3 x    18              5277312       0.0%    100.0%      0.0%
 flops    62 x     3 x    13              5329272       0.0%    100.0%      0.0%
 flops     5 x    32 x    32              6881280       0.0%    100.0%      0.0%
 flops    49 x     3 x    26              8423688       0.0%    100.0%      0.0%
 flops    54 x     3 x    26              9283248       0.0%    100.0%      0.0%
 flops    57 x     3 x    26              9798984       0.0%    100.0%      0.0%
 flops    32 x     3 x    13              9954048       0.0%    100.0%      0.0%
 flops     3 x    32 x    13             10163712       0.0%    100.0%      0.0%
 flops    62 x     3 x    26             10658544       0.0%    100.0%      0.0%
 flops     5 x     3 x     5             13238400       0.0%    100.0%      0.0%
 flops    13 x     5 x     3             13824720       0.0%    100.0%      0.0%
 flops     5 x    13 x     3             13824720       0.0%    100.0%      0.0%
 flops    32 x    32 x     3             18272256       0.0%    100.0%      0.0%
 flops     3 x    32 x    32             18272256       0.0%    100.0%      0.0%
 flops    32 x     3 x    32             18272256       0.0%    100.0%      0.0%
 flops    32 x     3 x    26             19908096       0.0%    100.0%      0.0%
 flops     3 x    32 x    26             20327424       0.0%    100.0%      0.0%
 flops    49 x     3 x    32             23153088       0.0%    100.0%      0.0%
 flops    49 x    32 x     3             23153088       0.0%    100.0%      0.0%
 flops    49 x     3 x    18             23327136       0.0%    100.0%      0.0%
 flops    54 x    32 x     3             25515648       0.0%    100.0%      0.0%
 flops    54 x     3 x    32             25515648       0.0%    100.0%      0.0%
 flops    54 x     3 x    18             25707456       0.0%    100.0%      0.0%
 flops    57 x     3 x    32             26933184       0.0%    100.0%      0.0%
 flops    57 x    32 x     3             26933184       0.0%    100.0%      0.0%
 flops    57 x     3 x    18             27135648       0.0%    100.0%      0.0%
 flops    62 x     3 x    32             29295744       0.0%    100.0%      0.0%
 flops    62 x    32 x     3             29295744       0.0%    100.0%      0.0%
 flops    62 x     3 x    18             29515968       0.0%    100.0%      0.0%
 flops    13 x    32 x    32             31309824       0.0%    100.0%      0.0%
 flops     5 x     5 x    32             36460800       0.0%    100.0%      0.0%
 flops    49 x    32 x    13             44926336       0.0%    100.0%      0.0%
 flops    54 x    32 x    13             49510656       0.0%    100.0%      0.0%
 flops    57 x    32 x    13             52261248       0.0%    100.0%      0.0%
 flops    32 x     3 x    18             55130112       0.0%    100.0%      0.0%
 flops     3 x    32 x    18             56291328       0.0%    100.0%      0.0%
 flops    62 x    32 x    13             56845568       0.0%    100.0%      0.0%
 flops     5 x     3 x    13             60234720       0.0%    100.0%      0.0%
 flops    13 x     3 x     5             60234720       0.0%    100.0%      0.0%
 flops    13 x    13 x     3             67395510       0.0%    100.0%      0.0%
 flops    49 x    32 x    26             89852672       0.0%    100.0%      0.0%
 flops    54 x    32 x    26             99021312       0.0%    100.0%      0.0%
 flops    57 x    32 x    26            104522496       0.0%    100.0%      0.0%
 flops    32 x    32 x    13            108412928       0.0%    100.0%      0.0%
 flops    62 x    32 x    26            113691136       0.0%    100.0%      0.0%
 flops     5 x    32 x     5            141209600       0.0%    100.0%      0.0%
 flops    13 x     5 x    32            147463680       0.0%    100.0%      0.0%
 flops     5 x    13 x    32            147463680       0.0%    100.0%      0.0%
 flops    32 x    32 x    32            194904064       0.0%    100.0%      0.0%
 flops    32 x    32 x    26            216825856       0.0%    100.0%      0.0%
 flops    49 x    32 x    32            246966272       0.0%    100.0%      0.0%
 flops    49 x    32 x    18            248822784       0.0%    100.0%      0.0%
 flops    54 x    32 x    32            272166912       0.0%    100.0%      0.0%
 flops    13 x     3 x    13            274067976       0.0%    100.0%      0.0%
 flops    54 x    32 x    18            274212864       0.0%    100.0%      0.0%
 flops    57 x    32 x    32            287287296       0.0%    100.0%      0.0%
 flops    57 x    32 x    18            289446912       0.0%    100.0%      0.0%
 flops    62 x    32 x    32            312487936       0.0%    100.0%      0.0%
 flops    62 x    32 x    18            314836992       0.0%    100.0%      0.0%
 flops    32 x    32 x    18            600440832       0.0%    100.0%      0.0%
 flops    13 x    32 x     5            642503680       0.0%    100.0%      0.0%
 flops     5 x    32 x    13            642503680       0.0%    100.0%      0.0%
 flops    13 x    13 x    32            718885440       0.0%    100.0%      0.0%
 flops    13 x    32 x    13           2923391744       0.0%    100.0%      0.0%
 flops inhomo. stacks                           0       0.0%      0.0%      0.0%
 flops total                        10.548261E+09       0.0%    100.0%      0.0%
 flops max/rank                      2.952854E+09       0.0%    100.0%      0.0%
 matmuls inhomo. stacks                         0       0.0%      0.0%      0.0%
 matmuls total                            1874002       0.0%    100.0%      0.0%
 number of processed stacks                846484       0.0%    100.0%      0.0%
 average stack size                                     0.0       2.2       0.0
 marketing flops                    11.611244E+09
 -------------------------------------------------------------------------------
 # multiplications                          10160
 max memory usage/rank               2.196152E+09
 # max total images/rank                        3
 # max 3D layers                                1
 # MPI messages exchanged                21457920
 MPI messages size (bytes):
  total size                        15.995075E+09
  min size                           0.000000E+00
  max size                          15.872000E+03
  average size                     745.415894E+00
 MPI breakdown and total messages size (bytes):
             size <=      128            18128231                  6726456
       128 < size <=     8192             2680337               9130496496
      8192 < size <=    32768              649352               6857744256
     32768 < size <=   131072                   0                        0
    131072 < size <=  4194304                   0                        0
   4194304 < size <= 16777216                   0                        0
  16777216 < size                               0                        0
 -------------------------------------------------------------------------------

 *** WARNING in dbcsr/mm/dbcsr_mm.F:268 :: Using a non-square number of ***
 *** MPI ranks might lead to poor performance.                          ***
 *** Used ranks: 48                                                     ***
 *** Suggested: 49 100                                                  ***

 -------------------------------------------------------------------------------

 MEMORY| Estimated peak process memory [MiB]                                2095

 -------------------------------------------------------------------------------
 -                                                                             -
 -                         MESSAGE PASSING PERFORMANCE                         -
 -                                                                             -
 -------------------------------------------------------------------------------

 ROUTINE             CALLS      AVE VOLUME [Bytes]
 MP_Group              480
 MP_Bcast            10471                1187932.
 MP_Allreduce        84772                 675285.
 MP_Sync                76
 MP_Alltoall         47888               14139452.
 MP_ISendRecv       103400                 163296.
 MP_Wait           1304957
 MP_comm_split          30
 MP_ISend          1004597                  55699.
 MP_IRecv           995324                  56050.
 MP_Memory          761222
 -------------------------------------------------------------------------------


 -------------------------------------------------------------------------------
 -                                                                             -
 -                           R E F E R E N C E S                               -
 -                                                                             -
 -------------------------------------------------------------------------------
 
 CP2K version 6.1, the CP2K developers group (2018).
 CP2K is freely available from https://www.cp2k.org/ .

 Schuett, Ole; Messmer, Peter; Hutter, Juerg; VandeVondele, Joost. 
 Electronic Structure Calculations on Graphics Processing Units, John Wiley & Sons, Ltd, 173-190 (2016). 
 GPU-Accelerated Sparse Matrix-Matrix Multiplication for Linear Scaling Density Functional Theory.
 http://dx.doi.org/10.1002/9781118670712.ch8


 Borstnik, U; VandeVondele, J; Weber, V; Hutter, J. 
 PARALLEL COMPUTING, 40 (5-6), 47-58 (2014). 
 Sparse matrix multiplication: The distributed block-compressed sparse
 row library.
 http://dx.doi.org/10.1016/j.parco.2014.03.012


 Hutter, J; Iannuzzi, M; Schiffmann, F; VandeVondele, J. 
 WILEY INTERDISCIPLINARY REVIEWS-COMPUTATIONAL MOLECULAR SCIENCE, 4 (1), 15-25 (2014). 
 CP2K: atomistic simulations of condensed matter systems.
 http://dx.doi.org/10.1002/wcms.1159


 Laino, T; Mohamed, F; Laio, A; Parrinello, M. 
 JOURNAL OF CHEMICAL THEORY AND COMPUTATION, 1 (6), 1176-1184 (2005). 
 An efficient real space multigrid QM/MM electrostatic coupling.
 http://dx.doi.org/10.1021/ct050123f


 Krack, M. 
 THEORETICAL CHEMISTRY ACCOUNTS, 114 (1-3), 145-152 (2005). 
 Pseudopotentials for H to Kr optimized for gradient-corrected
 exchange-correlation functionals.
 http://dx.doi.org/10.1007/s00214-005-0655-y


 VandeVondele, J; Krack, M; Mohamed, F; Parrinello, M; Chassaing, T;
 Hutter, J. COMPUTER PHYSICS COMMUNICATIONS, 167 (2), 103-128 (2005). 
 QUICKSTEP: Fast and accurate density functional calculations using a
 mixed Gaussian and plane waves approach.
 http://dx.doi.org/10.1016/j.cpc.2004.12.014


 Frigo, M; Johnson, SG. 
 PROCEEDINGS OF THE IEEE, 93 (2), 216-231 (2005). 
 The design and implementation of FFTW3.
 http://dx.doi.org/10.1109/JPROC.2004.840301


 Kolafa, J. 
 JOURNAL OF COMPUTATIONAL CHEMISTRY, 25 (3), 335-342 (2004). 
 Time-reversible always stable predictor-corrector method for molecular dynamics of polarizable molecules.
 http://dx.doi.org/10.1002/jcc.10385


 VandeVondele, J; Hutter, J. 
 JOURNAL OF CHEMICAL PHYSICS, 118 (10), 4365-4369 (2003). 
 An efficient orbital transformation method for electronic structure
 calculations.
 http://dx.doi.org/10.1063/1.1543154


 Hartwigsen, C; Goedecker, S; Hutter, J. 
 PHYSICAL REVIEW B, 58 (7), 3641-3662 (1998). 
 Relativistic separable dual-space Gaussian pseudopotentials from H to Rn.
 http://dx.doi.org/10.1103/PhysRevB.58.3641


 Lippert, G; Hutter, J; Parrinello, M. 
 MOLECULAR PHYSICS, 92 (3), 477-487 (1997). 
 A hybrid Gaussian and plane wave density functional scheme.
 http://dx.doi.org/10.1080/002689797170220


 Goedecker, S; Teter, M; Hutter, J. 
 PHYSICAL REVIEW B, 54 (3), 1703-1710 (1996). 
 Separable dual-space Gaussian pseudopotentials.
 http://dx.doi.org/10.1103/PhysRevB.54.1703


 ESSMANN, U; PERERA, L; BERKOWITZ, ML; DARDEN, T; LEE, H; PEDERSEN, LG. 
 JOURNAL OF CHEMICAL PHYSICS, 103 (19), 8577-8593 (1995). 
 A SMOOTH PARTICLE MESH EWALD METHOD.
 http://dx.doi.org/10.1063/1.470117


 BECKE, AD. PHYSICAL REVIEW A, 38 (6), 3098-3100 (1988). 
 DENSITY-FUNCTIONAL EXCHANGE-ENERGY APPROXIMATION WITH CORRECT
 ASYMPTOTIC-BEHAVIOR.
 http://dx.doi.org/10.1103/PhysRevA.38.3098


 LEE, CT; YANG, WT; PARR, RG. 
 PHYSICAL REVIEW B, 37 (2), 785-789 (1988). 
 DEVELOPMENT OF THE COLLE-SALVETTI CORRELATION-ENERGY FORMULA INTO A
 FUNCTIONAL OF THE ELECTRON-DENSITY.
 http://dx.doi.org/10.1103/PhysRevB.37.785


 NOSE, S. JOURNAL OF CHEMICAL PHYSICS, 81 (1), 511-519 (1984). 
 A UNIFIED FORMULATION OF THE CONSTANT TEMPERATURE MOLECULAR-DYNAMICS
 METHODS.
 http://dx.doi.org/10.1063/1.447334


 NOSE, S. MOLECULAR PHYSICS, 52 (2), 255-268 (1984). 
 A MOLECULAR-DYNAMICS METHOD FOR SIMULATIONS IN THE CANONICAL ENSEMBLE.
 http://dx.doi.org/10.1080/00268978400101201


 -------------------------------------------------------------------------------
 -                                                                             -
 -                                T I M I N G                                  -
 -                                                                             -
 -------------------------------------------------------------------------------
 SUBROUTINE                       CALLS  ASD         SELF TIME        TOTAL TIME
                                MAXIMUM       AVERAGE  MAXIMUM  AVERAGE  MAXIMUM
 CP2K                                 1  1.0    1.039    1.145 4663.714 4663.820
 qs_mol_dyn_low                       1  2.0    0.008    0.010 4652.143 4652.401
 velocity_verlet                     40  3.0    0.092    0.094 4385.672 4385.780
 qs_forces                           41  4.0    0.004    0.005 2746.233 2746.295
 qs_energies                         41  5.0    0.002    0.002 2577.195 2577.253
 scf_env_do_scf                      41  6.0    0.002    0.008 2513.764 2513.821
 scf_env_do_scf_inner_loop          509  6.9    0.015    0.043 2346.901 2346.954
 rebuild_ks_matrix                  550  8.7    0.001    0.002 2173.138 2173.265
 qs_ks_build_kohn_sham_matrix       550  9.7    0.102    0.122 2173.137 2173.263
 pw_transfer                      10901 12.2    0.912    1.332 2097.891 2111.440
 fft_wrap_pw1pw2                   9596 13.3    0.144    0.200 2075.076 2088.560
 fft_wrap_pw1pw2_150               6132 14.5  176.881  180.974 2030.673 2039.557
 qs_ks_update_qs_env                551  7.9    0.004    0.005 2004.291 2004.408
 fft3d_ps                          9596 15.3  903.742  924.071 1588.755 1609.775
 qs_vxc_create                      550 10.7    0.016    0.026 1527.544 1527.711
 xc_vxc_pw_create                   550 11.7   22.452   26.737 1527.528 1527.686
 qmmm_forces                         41  4.0    0.718    0.780 1005.811 1005.833
 qmmm_forces_with_gaussian           41  5.0    1.094    1.244  979.913  990.468
 qmmm_el_coupling                    41  4.0    0.002    0.003  882.939  891.422
 qmmm_elec_with_gaussian             41  5.0    0.398    0.567  882.640  891.123
 pw_restrict_s3                     123  6.0  643.839  657.325  819.140  830.689
 qmmm_elec_with_gaussian:spline      41  6.0    0.000    0.000  700.750  709.301
 pw_prolongate_s3                   123  7.0  544.329  557.675  700.749  709.301
 xc_rho_set_and_dset_create         550 12.7   20.918   22.732  688.511  705.702
 qs_rho_update_rho                  550  8.0    0.003    0.003  533.518  533.531
 calculate_rho_elec                 550  9.0    4.260   18.504  533.515  533.528
 density_rs2pw                      550 10.0    0.056    0.070  510.056  513.431
 x_to_yz                           5114 16.7  192.140  193.320  400.798  408.405
 mp_alltoall_z22v                  9596 17.3  387.396  408.267  387.396  408.267
 sum_up_and_integrate               550 10.7    5.212    5.293  350.382  350.702
 integrate_v_rspace                 550 11.7    1.612   10.740  345.169  345.494
 potential_pw2rs                    550 12.7    0.182    0.212  333.979  334.302
 yz_to_x                           4482 15.9  105.129  108.667  283.867  294.226
 rs_pw_transfer                    4646 12.1    0.086    0.125  240.141  242.923
 pw_scatter_p                      5114 15.7  174.047  176.880  174.047  176.880
 qs_ks_update_qs_env_forces          41  5.0    0.000    0.000  168.882  168.892
 init_scf_loop                       42  7.0    0.001    0.001  166.806  166.810
 pw_axpy                          12600  8.9  150.178  155.361  150.178  155.361
 pw_zero                          14326  7.5  136.578  141.576  136.578  141.576
 pw_gather_p                       4482 14.9  131.895  137.522  131.895  137.522
 pw_derive                         3423 13.0  121.684  124.845  121.684  124.845
 qmmm_elec_with_gaussian_low         41  6.0    0.000    0.000  117.130  117.584
 qmmm_elec_gaussian_low_R            41  7.0    0.000    0.000  109.335  109.380
 qmmm_elec_with_gaussian_LR          41  8.0  109.335  109.380  109.335  109.380
 rs_pw_transfer_PW2RS_150           591 14.4   65.597   74.124  100.612  105.219
 qmmm_force_with_gaussian_low        41  6.0    0.000    0.000   98.567  101.052
 -------------------------------------------------------------------------------

 The number of warnings for this run is : 1
 
 -------------------------------------------------------------------------------
  **** **** ******  **  PROGRAM ENDED AT                 2019-03-06 12:47:47.613
 ***** ** ***  *** **   PROGRAM RAN ON                                  nid04762
 **    ****   ******    PROGRAM RAN BY                                  fionabio
 ***** **    ** ** **   PROGRAM PROCESS ID                                 48491
  **** **  *******  **  PROGRAM STOPPED IN /fs3/d118/d118/fionabio/BioExcel2/cp2
                                           k_benchmarks/QMMM/MM/2_nodes/test-1
Experiment data file written:
/fs3/d118/d118/fionabio/BioExcel2/cp2k_benchmarks/QMMM/MM/2_nodes/test-1/cp2k.psmp+samp+48491-4762s.xf
Application 33823494 resources: utime ~211373s, stime ~12562s, Rss ~2224436, inblocks ~3950403, outblocks ~1845104
