#     Step Nr.          Time[fs]        Kin.[a.u.]          Temp[K]            Pot.[a.u.]        Cons Qty[a.u.]        UsedTime[s]
         0            0.000000        40.175949793       299.249817787      -238.947395133      -198.770973484         0.000000000
         1            1.000000        40.154318256       299.088695678      -238.897069872      -198.739504730       437.032824952
         2            2.000000        40.154774924       299.092097165      -238.904509919      -198.743683861       128.097217499
         3            3.000000        40.194516944       299.388114867      -238.959112986      -198.755708776       128.262292102
         4            4.000000        40.216043503       299.548455039      -238.959291389      -198.731485302       127.552299122
         5            5.000000        40.387279102       300.823900230      -239.165101400      -198.763131817       127.741008015
