#     Step Nr.          Time[fs]        Kin.[a.u.]          Temp[K]            Pot.[a.u.]        Cons Qty[a.u.]        UsedTime[s]
         0            0.000000        40.175949793       299.249817787      -238.947395132      -198.770973483         0.000000000
         1            1.000000        40.154318256       299.088695678      -238.897069870      -198.739504728       406.852528741
         2            2.000000        40.154774924       299.092097165      -238.904509918      -198.743683859       120.806512825
         3            3.000000        40.194516944       299.388114867      -238.959112984      -198.755708774       121.654547228
         4            4.000000        40.216043503       299.548455039      -238.959291387      -198.731485300       122.073136074
         5            5.000000        40.387279102       300.823900230      -239.165101398      -198.763131815       121.808074409
