#     Step Nr.          Time[fs]        Kin.[a.u.]          Temp[K]            Pot.[a.u.]        Cons Qty[a.u.]        UsedTime[s]
         0            0.000000        40.175949793       299.249817787      -484.105023657      -443.928602008         0.000000000
         1            1.000000        40.157374363       299.111459041      -484.052369546      -443.891748114       312.920288808
         2            2.000000        40.163796009       299.159290551      -484.064784177      -443.894935665        88.449023569
         3            3.000000        40.211475753       299.514432242      -484.126299475      -443.905931545        88.727024724
         4            4.000000        40.239271186       299.721466006      -484.141163452      -443.890117337        86.368841621
         5            5.000000        40.412205605       301.009564820      -484.345276351      -443.918355593        90.228941340
