#     Step Nr.          Time[fs]        Kin.[a.u.]          Temp[K]            Pot.[a.u.]        Cons Qty[a.u.]        UsedTime[s]
         0            0.000000        40.175949793       299.249817787      -484.105023655      -443.928602007         0.000000000
         1            1.000000        40.157374363       299.111459041      -484.052369545      -443.891748113       310.592377149
         2            2.000000        40.163796009       299.159290551      -484.064784176      -443.894935664        91.672313130
         3            3.000000        40.211475753       299.514432242      -484.126299474      -443.905931544        92.012444942
         4            4.000000        40.239271186       299.721466006      -484.141163451      -443.890117336        90.243831948
         5            5.000000        40.412205605       301.009564820      -484.345276350      -443.918355591        92.231302142
