 DBCSR| Multiplication driver                                               XSMM
 DBCSR| Multrec recursion limit                                              512
 DBCSR| Multiplication stack size                                           1000
 DBCSR| Maximum elements for images                                    UNLIMITED
 DBCSR| Multiplicative factor virtual images                                   1
 DBCSR| Multiplication size stacks                                             3
 DBCSR| Number of 3D layers                                               SINGLE
 DBCSR| Use MPI memory allocation                                              T
 DBCSR| Use RMA algorithm                                                      F
 DBCSR| Use Communication thread                                               T
 DBCSR| Communication thread load                                             87


  **** **** ******  **  PROGRAM STARTED AT               2020-06-23 10:40:45.685
 ***** ** ***  *** **   PROGRAM STARTED ON                          r07c03.bullx
 **    ****   ******    PROGRAM STARTED BY                                vamodi
 ***** **    ** ** **   PROGRAM PROCESS ID                                111467
  **** **  *******  **  PROGRAM STARTED IN /scratch/vamodi/s65t_h148d-pt/qm-1/ab
                                           spectra

 CP2K| version string:                                          CP2K version 6.1
 CP2K| source code revision number:                                    svn:18464
 CP2K| cp2kflags: libint fftw3 libxc parallel mpi3 scalapack xsmm libderiv_max_a
 CP2K|            m1=5 libint_max_am=6 mkl
 CP2K| is freely available from                            https://www.cp2k.org/
 CP2K| Program compiled at                         Thu Aug 15 09:14:59 EEST 2019
 CP2K| Program compiled on                                    puhti-login3.bullx
 CP2K| Program compiled for                             linux-rhel7-x86_64-intel
 CP2K| Data directory path    /appl/spack/install-tree/intel-19.0.4/cp2k-6.1-hef
 CP2K| Input file name                                                 b3lyp.inp
 
 GLOBAL| Force Environment number                                              1
 GLOBAL| Basis set file name                                        BASIS_MOLOPT
 GLOBAL| Potential file name                                           POTENTIAL
 GLOBAL| MM Potential file name                                     MM_POTENTIAL
 GLOBAL| Coordinate file name                                           cp2k.pdb
 GLOBAL| Method name                                                        CP2K
 GLOBAL| Project name                                                    GROMACS
 GLOBAL| Preferred FFT library                                             FFTW3
 GLOBAL| Preferred diagonalization lib.                                       SL
 GLOBAL| Run type                                                         ENERGY
 GLOBAL| All-to-all communication in single precision                          F
 GLOBAL| FFTs using library dependent lengths                                  F
 GLOBAL| Global print level                                                  LOW
 GLOBAL| Total number of message passing processes                            40
 GLOBAL| Number of threads for this process                                    1
 GLOBAL| This output is from process                                           0
 GLOBAL| CPU model name :  Intel(R) Xeon(R) Gold 6230 CPU @ 2.10GHz

 MEMORY| system memory details [Kb]
 MEMORY|                        rank 0           min           max       average
 MEMORY| MemTotal            196141332     196141332     196141332     196141332
 MEMORY| MemFree             177974688     177974688     177974688     177974688
 MEMORY| Buffers                   320           320           320           320
 MEMORY| Cached                6250768       6250768       6250768       6250768
 MEMORY| Slab                  4641224       4641224       4641224       4641224
 MEMORY| SReclaimable           948648        948648        948648        948648
 MEMORY| MemLikelyFree       185174424     185174424     185174424     185174424



                      ************* ******** ***********   
                     ************* **********************  
                     ****     **** ****      ***********   
                     ******** ****  *******     ****       
                     *******  ****   *******   ****        
                     ****     ****       ****  ****        
                     ****     **** **********  ****        
                      ****     **** ********    ****       
                     FRONTIERS IN SIMULATION TECHNOLOGY    
                                                           
                        C.J. Mundy, S. Balasubramanian,    
                     Ken Bagchi, J. Hutter, Ari Seitsonen  
                      IFW Kuo, T. Laino, J. VandeVondele   
                                 Version 1.0               

                                                           

 EWALD|                                                                 not used
 CHARGE_INFO| Total Charge of the Classical System:                     1.022774

 *******************************************************************************
 *******************************************************************************
 **                                                                           **
 **     #####                         ##              ##                      **
 **    ##   ##            ##          ##              ##                      **
 **   ##     ##                       ##            ######                    **
 **   ##     ##  ##   ##  ##   #####  ##  ##   ####   ##    #####    #####    **
 **   ##     ##  ##   ##  ##  ##      ## ##   ##      ##   ##   ##  ##   ##   **
 **   ##  ## ##  ##   ##  ##  ##      ####     ###    ##   ######   ######    **
 **    ##  ###   ##   ##  ##  ##      ## ##      ##   ##   ##       ##        **
 **     #######   #####   ##   #####  ##  ##  ####    ##    #####   ##        **
 **           ##                                                    ##        **
 **                                                                           **
 **                                                ... make the atoms dance   **
 **                                                                           **
 **            Copyright (C) by CP2K developers group (2000 - 2018)           **
 **                                                                           **
 *******************************************************************************


 TOTAL NUMBERS AND MAXIMUM NUMBERS

  Total number of            - Atomic kinds:                                   5
                             - Atoms:                                         22
                             - Shell sets:                                    22
                             - Shells:                                        94
                             - Primitive Cartesian functions:                154
                             - Cartesian basis functions:                    236
                             - Spherical basis functions:                    222

  Maximum angular momentum of- Orbital basis functions:                        2
                             - Local part of the GTH pseudopotential:          2
                             - Non-local part of the GTH pseudopotential:      0


 SCF PARAMETERS         Density guess:                                   RESTART
                        --------------------------------------------------------
                        max_scf:                                              20
                        max_scf_history:                                       0
                        max_diis:                                              4
                        --------------------------------------------------------
                        eps_scf:                                        5.00E-08
                        eps_scf_history:                                0.00E+00
                        eps_diis:                                       1.00E-01
                        eps_eigval:                                     1.00E-05
                        --------------------------------------------------------
                        level_shift [a.u.]:                                 0.00
                        --------------------------------------------------------
                        Outer loop SCF in use 
                        No variables optimised in outer loop
                        eps_scf                                         5.00E-08
                        max_scf                                               20
                        No outer loop optimization
                        step_size                                       5.00E-01


 *******************************************************************************
 *******************************************************************************
 **                                                                           **
 **             #######  ##     ## ##     ## ##     ##                        **
 **            ##     ## ###   ### ###   ### ###   ###                        **
 **            ##     ## #### #### #### #### #### ####                        **
 **            ##     ## ## ### ## ## ### ## ## ### ##                        **
 **            ##  ## ## ##     ## ##     ## ##     ##                        **
 **            ##    ##  ##     ## ##     ## ##     ##  T.Laino and F.Mohamed **
 **             ##### ## ##     ## ##     ## ##     ##  2005 - 2015           **
 **                                                                           **
 **                                                     Calculation Started.. **
 *******************************************************************************
 *******************************************************************************

  Translating the system in order to center the QM fragment in the QM box.

 Number of electrons:                                                         70
 Number of occupied orbitals:                                                 35
 Number of molecular orbitals:                                                35

 Number of orbital functions:                                                222
 Number of independent orbital functions:                                    222

 Extrapolation method: initial_guess


 SCF WAVEFUNCTION OPTIMIZATION

  ----------------------------------- OT ---------------------------------------
  Minimizer      : DIIS                : direct inversion
                                         in the iterative subspace
                                         using   7 DIIS vectors
                                         safer DIIS on
  Preconditioner : FULL_ALL            : diagonalization, state selective
  Precond_solver : DEFAULT
  stepsize       :    0.15000000                  energy_gap     :    0.08000000
  eps_taylor     :   0.10000E-15                  max_taylor     :             4
  ----------------------------------- OT ---------------------------------------

  Step     Update method      Time    Convergence         Total energy    Change
  ------------------------------------------------------------------------------
  Decoupling Energy:                                               0.0000040253
  Recoupling Energy:                                               0.0001167490
     1 OT DIIS     0.15E+00  156.2     0.00259985      -120.3712387307 -1.20E+02
  Decoupling Energy:                                               0.0000031865
  Recoupling Energy:                                               0.0001302421
     2 OT DIIS     0.15E+00    1.4     0.00127901      -120.3760547113 -4.82E-03
  Decoupling Energy:                                               0.0000023770
  Recoupling Energy:                                               0.0001264754
     3 OT DIIS     0.15E+00    1.4     0.00078312      -120.3770023418 -9.48E-04
  Decoupling Energy:                                               0.0000028640
  Recoupling Energy:                                               0.0001283244
     4 OT DIIS     0.15E+00    1.8     0.00019720      -120.3773497757 -3.47E-04
  Decoupling Energy:                                               0.0000024424
  Recoupling Energy:                                               0.0001290144
     5 OT DIIS     0.15E+00    1.4     0.00004317      -120.3773671150 -1.73E-05
  Decoupling Energy:                                               0.0000025969
  Recoupling Energy:                                               0.0001288821
     6 OT DIIS     0.15E+00    1.4     0.00001821      -120.3773682759 -1.16E-06
  Decoupling Energy:                                               0.0000025452
  Recoupling Energy:                                               0.0001288532
     7 OT DIIS     0.15E+00    1.4     0.00000889      -120.3773685081 -2.32E-07
  Decoupling Energy:                                               0.0000025586
  Recoupling Energy:                                               0.0001288429
     8 OT DIIS     0.15E+00    1.4     0.00000274      -120.3773685462 -3.81E-08
  Decoupling Energy:                                               0.0000025611
  Recoupling Energy:                                               0.0001288490
     9 OT DIIS     0.15E+00    1.4     0.00000096      -120.3773685502 -3.95E-09
  Decoupling Energy:                                               0.0000025577
  Recoupling Energy:                                               0.0001288464
    10 OT DIIS     0.15E+00    1.8     0.00000035      -120.3773685507 -5.27E-10
  Decoupling Energy:                                               0.0000025591
  Recoupling Energy:                                               0.0001288476
    11 OT DIIS     0.15E+00    1.4     0.00000014      -120.3773685508 -8.47E-11
  Decoupling Energy:                                               0.0000025586
  Recoupling Energy:                                               0.0001288478
    12 OT DIIS     0.15E+00    1.4     0.00000005      -120.3773685508 -1.05E-11
  Decoupling Energy:                                               0.0000025587
  Recoupling Energy:                                               0.0001288479
    13 OT DIIS     0.15E+00    1.4     0.00000002      -120.3773685508 -1.85E-12

  *** SCF run converged in    13 steps ***


  Electronic density on regular grids:        -69.9999999981        0.0000000019
  Core density on regular grids:               69.9999999955       -0.0000000045
  Total charge density on r-space grids:       -0.0000000026
  Total charge density g-space grids:          -0.0000000026

  Overlap energy of the core charge distribution:               0.00000489810936
  Self energy of the core charge distribution:               -277.38752277609575
  Core Hamiltonian energy:                                     84.15239921047778
  Hartree energy:                                             112.07452828394750
  Exchange-correlation energy:                                -26.18523369749105
  Hartree-Fock Exchange energy:                                -5.89095071264291
  QM/MM Electrostatic energy:                                  -7.14059375711110

  Total energy:                                              -120.37736855080618

  outer SCF iter =    1 RMS gradient =   0.24E-07 energy =       -120.3773685508
  outer SCF loop converged in   1 iterations or   13 steps


                     TDDFPT initial guess
 ------------------------------------------------------------
     State       Occupied    ->    Virtual        Excitation
     number       orbital          orbital        energy (eV)
 ------------------------------------------------------------
        1           35               36               3.51253
        2           34               36               4.54738
        3           33               36               4.94690
        4           32               36               5.03955
        5           35               37               5.26458

 Number of active states:                        6545

 TDDFPT WAVEFUNCTION OPTIMIZATION

     Step     Time     Convergence     Conv. states
 --------------------------------------------------
        1      8.4      2.0536E-02              0
        2      8.4      2.7234E-02              0
        3      8.3      1.4349E-03              0
        4      7.9      3.0372E-04              1
        5      8.3      2.5137E-05              5
 ---------- Restart Davidson iterations -----------
        6      8.3      6.0415E-05              3
        7      8.3      4.3479E-06              5

 *** TDDFPT run converged in 7 iteration(s) ***

 R-TDDFPT states of multiplicity 1

          State     Excitation      Transition dipole (a.u.)        Oscillator
          number    energy (eV)       x         y         z       strength (a.u.)
         ------------------------------------------------------------------------
 TDDFPT|       1        3.40377      0.0791   -0.1366   -0.0149        0.00210
 TDDFPT|       2        3.66651     -1.2588   -0.0463    1.0278        0.23742
 TDDFPT|       3        4.13902     -0.0224   -0.0066    0.0640        0.00047
 TDDFPT|       4        4.34409      0.3913   -0.0247   -0.3156        0.02696
 TDDFPT|       5        4.88209     -0.1903   -0.1287   -0.1285        0.00829

 Excitation analysis

   State        Occupied         Virtual        Excitation
   number        orbital         orbital        amplitude
 ---------------------------------------------------------
        1
                   34              36            -0.988373
                   34              38             0.087024
                   35              36             0.059367
                   33              36             0.054416
        2
                   35              36            -0.965538
                   30              36            -0.135465
                   32              36            -0.066966
                   34              36            -0.055394
                   27              36             0.051831
                   32              37             0.050331
        3
                   33              36             0.620450
                   35              37             0.542229
                   32              36             0.526854
                   33              37             0.106141
                   32              37            -0.101575
                   32              38             0.084613
                   33              38             0.064924
        4
                   32              36            -0.681907
                   33              36             0.624086
                   35              38            -0.277628
                   30              36            -0.115538
                   35              36             0.087793
                   35              37            -0.075769
                   35              40            -0.075370
                   33              37            -0.074242
                   31              36            -0.072053
                   34              36             0.068698
                   32              37            -0.067949
                   30              38             0.063685
        5
                   35              37             0.788252
                   32              36            -0.396942
                   33              36            -0.352269
                   33              38             0.160987
                   32              38             0.145290
                   32              37             0.124147
                   33              37            -0.090809
                   33              40             0.052034
                   30              36            -0.051448
                   27              37             0.050607
                   31              36            -0.050603

 ENERGY| Total FORCE_EVAL ( QMMM ) energy (a.u.):           -113.248891779409703


 -------------------------------------------------------------------------------
 -                                                                             -
 -                                DBCSR STATISTICS                             -
 -                                                                             -
 -------------------------------------------------------------------------------
 COUNTER                                    TOTAL       BLAS       SMM       ACC
 flops     5 x     3 x     3                  720       0.0%    100.0%      0.0%
 flops    13 x     3 x     3                 3276       0.0%    100.0%      0.0%
 flops     3 x     3 x     3                 7290       0.0%    100.0%      0.0%
 flops     3 x     3 x    10                 9540       0.0%    100.0%      0.0%
 flops     3 x     3 x     5                23850       0.0%    100.0%      0.0%
 flops    43 x     3 x     3                50310       0.0%    100.0%      0.0%
 flops    49 x     3 x     3                57330       0.0%    100.0%      0.0%
 flops    43 x     3 x    10                72240       0.0%    100.0%      0.0%
 flops     5 x     5 x     3                75600       0.0%    100.0%      0.0%
 flops     3 x     3 x    32                77760       0.0%    100.0%      0.0%
 flops     3 x    32 x     3                77760       0.0%    100.0%      0.0%
 flops    32 x     3 x     3                77760       0.0%    100.0%      0.0%
 flops     5 x    32 x    32                81920       0.0%    100.0%      0.0%
 flops    49 x     3 x    10                82320       0.0%    100.0%      0.0%
 flops     5 x    27 x     5                86400       0.0%    100.0%      0.0%
 flops     3 x    32 x    10               101760       0.0%    100.0%      0.0%
 flops    32 x     3 x    10               101760       0.0%    100.0%      0.0%
 flops    65 x     3 x     3               152100       0.0%    100.0%      0.0%
 flops     3 x     3 x    13               161226       0.0%    100.0%      0.0%
 flops    43 x     3 x     5               180600       0.0%    100.0%      0.0%
 flops    49 x     3 x     5               205800       0.0%    100.0%      0.0%
 flops    65 x     3 x    10               218400       0.0%    100.0%      0.0%
 flops     3 x    32 x     5               254400       0.0%    100.0%      0.0%
 flops    32 x     3 x     5               254400       0.0%    100.0%      0.0%
 flops    13 x     5 x     3               305760       0.0%    100.0%      0.0%
 flops     5 x    13 x     3               305760       0.0%    100.0%      0.0%
 flops    13 x    32 x    32               372736       0.0%    100.0%      0.0%
 flops    13 x    27 x     5               393120       0.0%    100.0%      0.0%
 flops     5 x    27 x    13               393120       0.0%    100.0%      0.0%
 flops    43 x     3 x    32               536640       0.0%    100.0%      0.0%
 flops    43 x    32 x     3               536640       0.0%    100.0%      0.0%
 flops    65 x     3 x     5               546000       0.0%    100.0%      0.0%
 flops    49 x     3 x    32               611520       0.0%    100.0%      0.0%
 flops    49 x    32 x     3               611520       0.0%    100.0%      0.0%
 flops    43 x    32 x    10               770560       0.0%    100.0%      0.0%
 flops     5 x     5 x    32               806400       0.0%    100.0%      0.0%
 flops    32 x    32 x     3               829440       0.0%    100.0%      0.0%
 flops     3 x    32 x    32               829440       0.0%    100.0%      0.0%
 flops    32 x     3 x    32               829440       0.0%    100.0%      0.0%
 flops    49 x    32 x    10               878080       0.0%    100.0%      0.0%
 flops    32 x    32 x    10              1085440       0.0%    100.0%      0.0%
 flops    43 x     3 x    13              1220856       0.0%    100.0%      0.0%
 flops    49 x     3 x    13              1391208       0.0%    100.0%      0.0%
 flops    13 x    13 x     3              1490580       0.0%    100.0%      0.0%
 flops    65 x    32 x     3              1622400       0.0%    100.0%      0.0%
 flops    65 x     3 x    32              1622400       0.0%    100.0%      0.0%
 flops     3 x    32 x    13              1719744       0.0%    100.0%      0.0%
 flops    32 x     3 x    13              1719744       0.0%    100.0%      0.0%
 flops    13 x    27 x    13              1788696       0.0%    100.0%      0.0%
 flops    43 x    32 x     5              1926400       0.0%    100.0%      0.0%
 flops     5 x     3 x     5              1977600       0.0%    100.0%      0.0%
 flops    49 x    32 x     5              2195200       0.0%    100.0%      0.0%
 flops    65 x    32 x    10              2329600       0.0%    100.0%      0.0%
 flops    32 x    32 x     5              2713600       0.0%    100.0%      0.0%
 flops    13 x     5 x    32              3261440       0.0%    100.0%      0.0%
 flops     5 x    13 x    32              3261440       0.0%    100.0%      0.0%
 flops    65 x     3 x    13              3690960       0.0%    100.0%      0.0%
 flops    43 x    32 x    32              5724160       0.0%    100.0%      0.0%
 flops    65 x    32 x     5              5824000       0.0%    100.0%      0.0%
 flops    49 x    32 x    32              6522880       0.0%    100.0%      0.0%
 flops    32 x    32 x    32              8847360       0.0%    100.0%      0.0%
 flops    13 x     3 x     5              8998080       0.0%    100.0%      0.0%
 flops     5 x     3 x    13              8998080       0.0%    100.0%      0.0%
 flops    43 x    32 x    13             13022464       0.0%    100.0%      0.0%
 flops    49 x    32 x    13             14839552       0.0%    100.0%      0.0%
 flops    13 x    13 x    32             15899520       0.0%    100.0%      0.0%
 flops    65 x    32 x    32             17305600       0.0%    100.0%      0.0%
 flops    32 x    32 x    13             18343936       0.0%    100.0%      0.0%
 flops     5 x    32 x     5             21606400       0.0%    100.0%      0.0%
 flops    65 x    32 x    13             39370240       0.0%    100.0%      0.0%
 flops    13 x     3 x    13             40941264       0.0%    100.0%      0.0%
 flops    13 x    32 x     5             98309120       0.0%    100.0%      0.0%
 flops     5 x    32 x    13             98309120       0.0%    100.0%      0.0%
 flops    13 x    32 x    13            447306496       0.0%    100.0%      0.0%
 flops inhomo. stacks                    10169460     100.0%      0.0%      0.0%
 flops total                       927.325738E+06       1.1%     98.9%      0.0%
 flops max/rank                    261.391608E+06       1.5%     98.5%      0.0%
 matmuls inhomo. stacks                       436     100.0%      0.0%      0.0%
 matmuls total                             220280       0.2%     99.8%      0.0%
 number of processed stacks                 65676       0.7%     99.3%      0.0%
 average stack size                                     1.0       3.4       0.0
 marketing flops                   950.850240E+06
 -------------------------------------------------------------------------------
 # multiplications                            504
 max memory usage/rank               1.307914E+09
 # max total images/rank                        5
 # max 3D layers                                1
 # MPI messages exchanged                 1270080
 MPI messages size (bytes):
  total size                         1.109293E+09
  min size                           0.000000E+00
  max size                          16.640000E+03
  average size                     873.403687E+00
 MPI breakdown and total messages size (bytes):
             size <=      128              975366                  2053728
       128 < size <=     8192              287604               1026727056
      8192 < size <=    32768                7110                 80511840
     32768 < size <=   131072                   0                        0
    131072 < size <=  4194304                   0                        0
   4194304 < size <= 16777216                   0                        0
  16777216 < size                               0                        0
 -------------------------------------------------------------------------------

 -------------------------------------------------------------------------------
 
 MEMORY| Estimated peak process memory [MiB]                                1248

 -------------------------------------------------------------------------------
 -                                                                             -
 -                         MESSAGE PASSING PERFORMANCE                         -
 -                                                                             -
 -------------------------------------------------------------------------------

 ROUTINE             CALLS      AVE VOLUME [Bytes]
 MP_Group              199
 MP_Bcast              638                7767952.
 MP_Allreduce         3370                  90851.
 MP_Sync               260
 MP_Alltoall          6667                1990842.
 MP_SendRecv           582                 819200.
 MP_ISendRecv        19383                  33778.
 MP_Wait             75994
 MP_comm_split          11
 MP_ISend            73638                  66917.
 MP_IRecv            73643                  66870.
 MP_Recv                48                   7104.
 MP_Memory           54846
 -------------------------------------------------------------------------------


 -------------------------------------------------------------------------------
 -                                                                             -
 -                           R E F E R E N C E S                               -
 -                                                                             -
 -------------------------------------------------------------------------------
 
 CP2K version 6.1, the CP2K developers group (2018).
 CP2K is freely available from https://www.cp2k.org/ .

 Schuett, Ole; Messmer, Peter; Hutter, Juerg; VandeVondele, Joost. 
 Electronic Structure Calculations on Graphics Processing Units, John Wiley & Sons, Ltd, 173-190 (2016). 
 GPU-Accelerated Sparse Matrix-Matrix Multiplication for Linear Scaling Density Functional Theory.
 http://dx.doi.org/10.1002/9781118670712.ch8


 Borstnik, U; VandeVondele, J; Weber, V; Hutter, J. 
 PARALLEL COMPUTING, 40 (5-6), 47-58 (2014). 
 Sparse matrix multiplication: The distributed block-compressed sparse
 row library.
 http://dx.doi.org/10.1016/j.parco.2014.03.012


 Hutter, J; Iannuzzi, M; Schiffmann, F; VandeVondele, J. 
 WILEY INTERDISCIPLINARY REVIEWS-COMPUTATIONAL MOLECULAR SCIENCE, 4 (1), 15-25 (2014). 
 CP2K: atomistic simulations of condensed matter systems.
 http://dx.doi.org/10.1002/wcms.1159


 Guidon, M; Hutter, J; VandeVondele, J. 
 JOURNAL OF CHEMICAL THEORY AND COMPUTATION, 5 (11), 3010-3021 (2009). 
 Robust Periodic Hartree-Fock Exchange for Large-Scale Simulations Using
 Gaussian Basis Sets.
 http://dx.doi.org/10.1021/ct900494g


 Guidon, M; Schiffmann, F; Hutter, J; VandeVondele, J. 
 JOURNAL OF CHEMICAL PHYSICS, 128 (21), 214104 (2008). 
 Ab initio molecular dynamics using hybrid density functionals.
 http://dx.doi.org/10.1063/1.2931945


 VandeVondele, J; Hutter, J. 
 JOURNAL OF CHEMICAL PHYSICS, 127 (11), 114105 (2007). 
 Gaussian basis sets for accurate calculations on molecular systems in
 gas and condensed phases.
 http://dx.doi.org/10.1063/1.2770708


 Laino, T; Mohamed, F; Laio, A; Parrinello, M. 
 JOURNAL OF CHEMICAL THEORY AND COMPUTATION, 2 (5), 1370-1378 (2006). 
 An efficient linear-scaling electrostatic coupling for treating
 periodic boundary conditions in QM/MM simulations.
 http://dx.doi.org/10.1021/ct6001169


 Laino, T; Mohamed, F; Laio, A; Parrinello, M. 
 JOURNAL OF CHEMICAL THEORY AND COMPUTATION, 1 (6), 1176-1184 (2005). 
 An efficient real space multigrid QM/MM electrostatic coupling.
 http://dx.doi.org/10.1021/ct050123f


 Krack, M. 
 THEORETICAL CHEMISTRY ACCOUNTS, 114 (1-3), 145-152 (2005). 
 Pseudopotentials for H to Kr optimized for gradient-corrected
 exchange-correlation functionals.
 http://dx.doi.org/10.1007/s00214-005-0655-y


 VandeVondele, J; Krack, M; Mohamed, F; Parrinello, M; Chassaing, T;
 Hutter, J. COMPUTER PHYSICS COMMUNICATIONS, 167 (2), 103-128 (2005). 
 QUICKSTEP: Fast and accurate density functional calculations using a
 mixed Gaussian and plane waves approach.
 http://dx.doi.org/10.1016/j.cpc.2004.12.014


 Frigo, M; Johnson, SG. 
 PROCEEDINGS OF THE IEEE, 93 (2), 216-231 (2005). 
 The design and implementation of FFTW3.
 http://dx.doi.org/10.1109/JPROC.2004.840301


 Iannuzzi, M; Chassaing, T; Wallman, T; Hutter, J. 
 CHIMIA, 59 (7-8), 499-503 (2005). 
 Ground and excited state density functional calculations with the
 Gaussian and augmented-plane-wave method.
 http://dx.doi.org/10.2533/000942905777676164


 VandeVondele, J; Hutter, J. 
 JOURNAL OF CHEMICAL PHYSICS, 118 (10), 4365-4369 (2003). 
 An efficient orbital transformation method for electronic structure
 calculations.
 http://dx.doi.org/10.1063/1.1543154


 Hartwigsen, C; Goedecker, S; Hutter, J. 
 PHYSICAL REVIEW B, 58 (7), 3641-3662 (1998). 
 Relativistic separable dual-space Gaussian pseudopotentials from H to Rn.
 http://dx.doi.org/10.1103/PhysRevB.58.3641


 Lippert, G; Hutter, J; Parrinello, M. 
 MOLECULAR PHYSICS, 92 (3), 477-487 (1997). 
 A hybrid Gaussian and plane wave density functional scheme.
 http://dx.doi.org/10.1080/002689797170220


 Goedecker, S; Teter, M; Hutter, J. 
 PHYSICAL REVIEW B, 54 (3), 1703-1710 (1996). 
 Separable dual-space Gaussian pseudopotentials.
 http://dx.doi.org/10.1103/PhysRevB.54.1703


 BLOCHL, PE. 
 JOURNAL OF CHEMICAL PHYSICS, 103 (17), 7422-7428 (1995). 
 ELECTROSTATIC DECOUPLING OF PERIODIC IMAGES OF PLANE-WAVE-EXPANDED
 DENSITIES AND DERIVED ATOMIC POINT CHARGES.
 http://dx.doi.org/10.1063/1.470314


 BECKE, AD. PHYSICAL REVIEW A, 38 (6), 3098-3100 (1988). 
 DENSITY-FUNCTIONAL EXCHANGE-ENERGY APPROXIMATION WITH CORRECT
 ASYMPTOTIC-BEHAVIOR.
 http://dx.doi.org/10.1103/PhysRevA.38.3098


 LEE, CT; YANG, WT; PARR, RG. 
 PHYSICAL REVIEW B, 37 (2), 785-789 (1988). 
 DEVELOPMENT OF THE COLLE-SALVETTI CORRELATION-ENERGY FORMULA INTO A
 FUNCTIONAL OF THE ELECTRON-DENSITY.
 http://dx.doi.org/10.1103/PhysRevB.37.785


 VOSKO, SH; WILK, L; NUSAIR, M. 
 CANADIAN JOURNAL OF PHYSICS, 58 (8), 1200-1211 (1980). 
 ACCURATE SPIN-DEPENDENT ELECTRON LIQUID CORRELATION ENERGIES FOR LOCAL
 SPIN-DENSITY CALCULATIONS - A CRITICAL ANALYSIS.
 http://dx.doi.org/10.1139/p80-159


 -------------------------------------------------------------------------------
 -                                                                             -
 -                                T I M I N G                                  -
 -                                                                             -
 -------------------------------------------------------------------------------
 SUBROUTINE                       CALLS  ASD         SELF TIME        TOTAL TIME
                                MAXIMUM       AVERAGE  MAXIMUM  AVERAGE  MAXIMUM
 CP2K                                 1  1.0    0.128    0.147  252.545  252.554
 qs_energies                          1  2.0    0.001    0.011  238.038  238.046
 scf_env_do_scf                       1  3.0    0.000    0.000  174.581  174.587
 qs_ks_update_qs_env                 14  5.0    0.000    0.000  167.794  167.801
 rebuild_ks_matrix                   13  6.0    0.000    0.000  167.783  167.790
 qs_ks_build_kohn_sham_matrix        13  7.0    0.002    0.002  167.783  167.790
 init_scf_loop                        1  4.0    0.000    0.010  156.157  156.162
 integrate_four_center               48  9.0    0.020    0.036  154.968  154.974
 hfx_ks_matrix                       13  8.0    0.000    0.000  153.581  153.587
 integrate_four_center_main          48 10.0    0.005    0.006  140.185  145.771
 integrate_four_center_bin         3216 11.0  140.180  145.766  140.180  145.766
 qs_energies_properties               1  3.0    0.000    0.000   58.808   58.810
 tddfpt                               1  4.0    0.001    0.001   58.808   58.810
 tddfpt_davidson_solver               2  5.0    0.000    0.001   57.940   57.942
 tddfpt_compute_Aop_evects            7  6.0    0.000    0.000   57.767   57.769
 pw_transfer                        874  9.7    0.059    0.067   35.747   35.973
 fft_wrap_pw1pw2                    765 10.7    0.005    0.006   34.809   35.046
 fft_wrap_pw1pw2_230                233 11.4    2.401    2.486   32.740   33.038
 fft3d_ps                           765 12.7   18.133   19.199   28.139   28.414
 integrate_v_rspace                  83  8.2    1.482    5.444   27.985   28.170
 qs_rho_update_rho                   50  6.4    0.000    0.000   24.455   24.459
 calculate_rho_elec                  50  7.4    1.102    3.562   24.454   24.459
 density_rs2pw                       50  8.4    0.003    0.004   22.033   22.714
 potential_pw2rs                     83  9.2    0.047    0.051   22.480   22.663
 tddfpt_apply_xc                     35  7.0    1.509    1.590   21.143   21.144
 tddfpt_apply_coulomb                35  7.0    0.001    0.001   19.244   19.245
 scf_env_do_scf_inner_loop           13  4.0    0.001    0.001   18.423   18.423
 rs_pw_transfer                     666  9.9    0.005    0.007   17.726   18.392
 mp_sync                            260 10.7    5.633   11.160    5.633   11.160
 qmmm_el_coupling                     1  2.0    0.000    0.000    7.413    8.421
 qmmm_elec_with_gaussian              1  3.0    0.010    0.011    7.411    8.419
 rs_pw_transfer_PW2RS_230            83 11.2    4.859    5.381    6.851    8.058
 yz_to_x                            334 13.6    1.827    2.050    6.374    7.261
 mp_waitany                        6942 11.9    5.881    7.072    5.881    7.072
 pw_nn_compose_r                    355  8.1    5.610    6.193    6.523    7.029
 mp_alltoall_z22v                   765 14.7    6.040    7.014    6.040    7.014
 qmmm_elec_with_gaussian:spline       1  4.0    0.000    0.000    5.836    6.846
 pw_prolongate_s3                     4  5.0    4.474    5.451    5.836    6.846
 rs_pw_transfer_RS2PW_230            51 10.4    1.933    2.206    5.266    5.981
 calc_pair_dist_radii                 1 10.0    4.047    5.118    4.539    5.802
 qmmm_env_create                      1  2.0    0.441    0.446    5.652    5.654
 mp_alltoall_d11v                  2330 10.6    4.352    5.475    4.352    5.475
 qs_vxc_create                       13  8.0    0.000    0.000    5.418    5.442
 xc_vxc_pw_create                    13  9.0    0.149    0.377    5.418    5.442
 rs_distribute_matrix               133  8.9    0.005    0.014    4.263    5.383
 -------------------------------------------------------------------------------

 The number of warnings for this run is : 0
 
 -------------------------------------------------------------------------------
  **** **** ******  **  PROGRAM ENDED AT                 2020-06-23 10:44:59.521
 ***** ** ***  *** **   PROGRAM RAN ON                              r07c03.bullx
 **    ****   ******    PROGRAM RAN BY                                    vamodi
 ***** **    ** ** **   PROGRAM PROCESS ID                                111467
  **** **  *******  **  PROGRAM STOPPED IN /scratch/vamodi/s65t_h148d-pt/qm-1/ab
                                           spectra
