 DBCSR| Multiplication driver                                               XSMM
 DBCSR| Multrec recursion limit                                              512
 DBCSR| Multiplication stack size                                           1000
 DBCSR| Maximum elements for images                                    UNLIMITED
 DBCSR| Multiplicative factor virtual images                                   1
 DBCSR| Multiplication size stacks                                             3
 DBCSR| Number of 3D layers                                               SINGLE
 DBCSR| Use MPI memory allocation                                              T
 DBCSR| Use RMA algorithm                                                      F
 DBCSR| Use Communication thread                                               T
 DBCSR| Communication thread load                                             87


  **** **** ******  **  PROGRAM STARTED AT               2020-06-23 10:25:30.834
 ***** ** ***  *** **   PROGRAM STARTED ON                          r07c02.bullx
 **    ****   ******    PROGRAM STARTED BY                                vamodi
 ***** **    ** ** **   PROGRAM PROCESS ID                                 26271
  **** **  *******  **  PROGRAM STARTED IN /scratch/vamodi/s65t_h148d-pt/qm-1/ab
                                           spectra

 CP2K| version string:                                          CP2K version 6.1
 CP2K| source code revision number:                                    svn:18464
 CP2K| cp2kflags: libint fftw3 libxc parallel mpi3 scalapack xsmm libderiv_max_a
 CP2K|            m1=5 libint_max_am=6 mkl
 CP2K| is freely available from                            https://www.cp2k.org/
 CP2K| Program compiled at                         Thu Aug 15 09:14:59 EEST 2019
 CP2K| Program compiled on                                    puhti-login3.bullx
 CP2K| Program compiled for                             linux-rhel7-x86_64-intel
 CP2K| Data directory path    /appl/spack/install-tree/intel-19.0.4/cp2k-6.1-hef
 CP2K| Input file name                                                   pbe.inp
 
 GLOBAL| Force Environment number                                              1
 GLOBAL| Basis set file name                                        BASIS_MOLOPT
 GLOBAL| Potential file name                                           POTENTIAL
 GLOBAL| MM Potential file name                                     MM_POTENTIAL
 GLOBAL| Coordinate file name                                           cp2k.pdb
 GLOBAL| Method name                                                        CP2K
 GLOBAL| Project name                                                    GROMACS
 GLOBAL| Preferred FFT library                                             FFTW3
 GLOBAL| Preferred diagonalization lib.                                       SL
 GLOBAL| Run type                                                         ENERGY
 GLOBAL| All-to-all communication in single precision                          F
 GLOBAL| FFTs using library dependent lengths                                  F
 GLOBAL| Global print level                                                  LOW
 GLOBAL| Total number of message passing processes                            40
 GLOBAL| Number of threads for this process                                    1
 GLOBAL| This output is from process                                           0
 GLOBAL| CPU model name :  Intel(R) Xeon(R) Gold 6230 CPU @ 2.10GHz

 MEMORY| system memory details [Kb]
 MEMORY|                        rank 0           min           max       average
 MEMORY| MemTotal            196141332     196141332     196141332     196141332
 MEMORY| MemFree             181698800     181698800     181698800     181698800
 MEMORY| Buffers                   176           176           176           176
 MEMORY| Cached                4198956       4198956       4198956       4198956
 MEMORY| Slab                  3084200       3084200       3084200       3084200
 MEMORY| SReclaimable          1146196       1146196       1146196       1146196
 MEMORY| MemLikelyFree       187044128     187044128     187044128     187044128



                      ************* ******** ***********   
                     ************* **********************  
                     ****     **** ****      ***********   
                     ******** ****  *******     ****       
                     *******  ****   *******   ****        
                     ****     ****       ****  ****        
                     ****     **** **********  ****        
                      ****     **** ********    ****       
                     FRONTIERS IN SIMULATION TECHNOLOGY    
                                                           
                        C.J. Mundy, S. Balasubramanian,    
                     Ken Bagchi, J. Hutter, Ari Seitsonen  
                      IFW Kuo, T. Laino, J. VandeVondele   
                                 Version 1.0               

                                                           

 EWALD|                                                                 not used
 CHARGE_INFO| Total Charge of the Classical System:                     1.022774

 *******************************************************************************
 *******************************************************************************
 **                                                                           **
 **     #####                         ##              ##                      **
 **    ##   ##            ##          ##              ##                      **
 **   ##     ##                       ##            ######                    **
 **   ##     ##  ##   ##  ##   #####  ##  ##   ####   ##    #####    #####    **
 **   ##     ##  ##   ##  ##  ##      ## ##   ##      ##   ##   ##  ##   ##   **
 **   ##  ## ##  ##   ##  ##  ##      ####     ###    ##   ######   ######    **
 **    ##  ###   ##   ##  ##  ##      ## ##      ##   ##   ##       ##        **
 **     #######   #####   ##   #####  ##  ##  ####    ##    #####   ##        **
 **           ##                                                    ##        **
 **                                                                           **
 **                                                ... make the atoms dance   **
 **                                                                           **
 **            Copyright (C) by CP2K developers group (2000 - 2018)           **
 **                                                                           **
 *******************************************************************************


 TOTAL NUMBERS AND MAXIMUM NUMBERS

  Total number of            - Atomic kinds:                                   5
                             - Atoms:                                         22
                             - Shell sets:                                    22
                             - Shells:                                        94
                             - Primitive Cartesian functions:                154
                             - Cartesian basis functions:                    236
                             - Spherical basis functions:                    222

  Maximum angular momentum of- Orbital basis functions:                        2
                             - Local part of the GTH pseudopotential:          2
                             - Non-local part of the GTH pseudopotential:      0


 SCF PARAMETERS         Density guess:                                   RESTART
                        --------------------------------------------------------
                        max_scf:                                              20
                        max_scf_history:                                       0
                        max_diis:                                              4
                        --------------------------------------------------------
                        eps_scf:                                        5.00E-08
                        eps_scf_history:                                0.00E+00
                        eps_diis:                                       1.00E-01
                        eps_eigval:                                     1.00E-05
                        --------------------------------------------------------
                        level_shift [a.u.]:                                 0.00
                        --------------------------------------------------------
                        Outer loop SCF in use 
                        No variables optimised in outer loop
                        eps_scf                                         5.00E-08
                        max_scf                                               20
                        No outer loop optimization
                        step_size                                       5.00E-01

 *******************************************************************************
 *******************************************************************************
 **                                                                           **
 **             #######  ##     ## ##     ## ##     ##                        **
 **            ##     ## ###   ### ###   ### ###   ###                        **
 **            ##     ## #### #### #### #### #### ####                        **
 **            ##     ## ## ### ## ## ### ## ## ### ##                        **
 **            ##  ## ## ##     ## ##     ## ##     ##                        **
 **            ##    ##  ##     ## ##     ## ##     ##  T.Laino and F.Mohamed **
 **             ##### ## ##     ## ##     ## ##     ##  2005 - 2015           **
 **                                                                           **
 **                                                     Calculation Started.. **
 *******************************************************************************
 *******************************************************************************

  Translating the system in order to center the QM fragment in the QM box.

 Number of electrons:                                                         70
 Number of occupied orbitals:                                                 35
 Number of molecular orbitals:                                                35

 Number of orbital functions:                                                222
 Number of independent orbital functions:                                    222

 Extrapolation method: initial_guess

 *** WARNING in qs_initial_guess.F:263 :: User requested to restart the    ***
 *** wavefunction from the file named: GROMACS-RESTART.wfn. This file does ***
 *** not exist. Please check the existence of the file or change properly  ***
 *** the value of the keyword WFN_RESTART_FILE_NAME. Calculation continues ***
 *** using ATOMIC GUESS.                                                   ***



 SCF WAVEFUNCTION OPTIMIZATION

  ----------------------------------- OT ---------------------------------------
  Minimizer      : DIIS                : direct inversion
                                         in the iterative subspace
                                         using   7 DIIS vectors
                                         safer DIIS on
  Preconditioner : FULL_ALL            : diagonalization, state selective
  Precond_solver : DEFAULT
  stepsize       :    0.15000000                  energy_gap     :    0.08000000
  eps_taylor     :   0.10000E-15                  max_taylor     :             4
  ----------------------------------- OT ---------------------------------------

  Step     Update method      Time    Convergence         Total energy    Change
  ------------------------------------------------------------------------------
  Decoupling Energy:                                               0.0000709870
  Recoupling Energy:                                               0.0002172134
     1 OT DIIS     0.15E+00    1.0     0.09483412      -112.8516432886 -1.13E+02
  Decoupling Energy:                                               0.0006061328
  Recoupling Energy:                                               0.0000576355
     2 OT DIIS     0.15E+00    1.4     0.06048931      -118.2085656654 -5.36E+00
  Decoupling Energy:                                               0.0002311028
  Recoupling Energy:                                               0.0000942790
     3 OT DIIS     0.15E+00    1.4     0.04047744      -119.2059823427 -9.97E-01
  Decoupling Energy:                                               0.0002314666
  Recoupling Energy:                                               0.0000509002
     4 OT DIIS     0.15E+00    1.7     0.02168516      -119.7020357308 -4.96E-01
  Decoupling Energy:                                               0.0000780125
  Recoupling Energy:                                               0.0000763426
     5 OT DIIS     0.15E+00    1.4     0.01321652      -119.8965173281 -1.94E-01
  Decoupling Energy:                                               0.0000723981
  Recoupling Energy:                                               0.0000676001
     6 OT DIIS     0.15E+00    1.4     0.01128510      -120.0180677292 -1.22E-01
  Decoupling Energy:                                               0.0000506942
  Recoupling Energy:                                               0.0000647216
     7 OT DIIS     0.15E+00    1.4     0.00993404      -120.1091620616 -9.11E-02
  Decoupling Energy:                                               0.0000622996
  Recoupling Energy:                                               0.0000642793
     8 OT DIIS     0.15E+00    1.4     0.00984263      -120.1886629889 -7.95E-02
  Decoupling Energy:                                               0.0000372758
  Recoupling Energy:                                               0.0000689971
     9 OT DIIS     0.15E+00    1.4     0.00955242      -120.2579988285 -6.93E-02
  Decoupling Energy:                                               0.0000433358
  Recoupling Energy:                                               0.0000712969
    10 OT DIIS     0.15E+00    1.4     0.00938610      -120.3097604601 -5.18E-02
  Decoupling Energy:                                               0.0000283370
  Recoupling Energy:                                               0.0000786051
    11 OT SD       0.15E+00    1.7     0.01011475      -120.3706667441 -6.09E-02
  Decoupling Energy:                                               0.0000300121
  Recoupling Energy:                                               0.0000853304
    12 OT SD       0.15E+00    1.4     0.00781307      -120.4581161185 -8.74E-02
  Decoupling Energy:                                               0.0000246086
  Recoupling Energy:                                               0.0000948136
    13 OT SD       0.15E+00    1.4     0.00691133      -120.5108877413 -5.28E-02
  Decoupling Energy:                                               0.0000295805
  Recoupling Energy:                                               0.0000957246
    14 OT SD       0.15E+00    1.4     0.00673107      -120.5452400207 -3.44E-02
  Decoupling Energy:                                               0.0000206519
  Recoupling Energy:                                               0.0001083775
    15 OT SD       0.15E+00    1.4     0.00715169      -120.5683363909 -2.31E-02
  Decoupling Energy:                                               0.0000286141
  Recoupling Energy:                                               0.0000978541
    16 OT DIIS     0.15E+00    1.4     0.00831268      -120.5816383390 -1.33E-02
  Decoupling Energy:                                               0.0000057812
  Recoupling Energy:                                               0.0001091072
    17 OT DIIS     0.15E+00    1.4     0.00740150      -120.5983737039 -1.67E-02
  Decoupling Energy:                                               0.0000105379
  Recoupling Energy:                                               0.0001146298
    18 OT DIIS     0.15E+00    1.7     0.00233255      -120.6371533157 -3.88E-02
  Decoupling Energy:                                               0.0000081567
  Recoupling Energy:                                               0.0001136788
    19 OT DIIS     0.15E+00    1.4     0.00164801      -120.6426793896 -5.53E-03
  Decoupling Energy:                                               0.0000050713
  Recoupling Energy:                                               0.0001145332
    20 OT DIIS     0.15E+00    1.4     0.00138108      -120.6481342648 -5.45E-03

  Leaving inner SCF loop after reaching    20 steps.


  Electronic density on regular grids:        -69.9999999981        0.0000000019
  Core density on regular grids:               69.9999999955       -0.0000000045
  Total charge density on r-space grids:       -0.0000000026
  Total charge density g-space grids:          -0.0000000026

  Overlap energy of the core charge distribution:               0.00000489810936
  Self energy of the core charge distribution:               -277.38752277609575
  Core Hamiltonian energy:                                     84.25932670364455
  Hartree energy:                                             111.96678469023733
  Exchange-correlation energy:                                -32.34659612655800
  QM/MM Electrostatic energy:                                  -7.14013165413877

  Total energy:                                              -120.64813426480129

  outer SCF iter =    1 RMS gradient =   0.14E-02 energy =       -120.6481342648

  ----------------------------------- OT ---------------------------------------
  Minimizer      : DIIS                : direct inversion
                                         in the iterative subspace
                                         using   7 DIIS vectors
                                         safer DIIS on
  Preconditioner : FULL_ALL            : diagonalization, state selective
  Precond_solver : DEFAULT
  stepsize       :    0.15000000                  energy_gap     :    0.08000000
  eps_taylor     :   0.10000E-15                  max_taylor     :             4
  ----------------------------------- OT ---------------------------------------

  Step     Update method      Time    Convergence         Total energy    Change
  ------------------------------------------------------------------------------
  Decoupling Energy:                                               0.0000039518
  Recoupling Energy:                                               0.0001153530
     1 OT DIIS     0.15E+00    2.8     0.00260447      -120.6518027886 -3.67E-03
  Decoupling Energy:                                               0.0000055274
  Recoupling Energy:                                               0.0001177312
     2 OT DIIS     0.15E+00    1.4     0.00115270      -120.6570005579 -5.20E-03
  Decoupling Energy:                                               0.0000011584
  Recoupling Energy:                                               0.0001157432
     3 OT DIIS     0.15E+00    1.4     0.00124465      -120.6575696876 -5.69E-04
  Decoupling Energy:                                               0.0000043232
  Recoupling Energy:                                               0.0001165197
     4 OT DIIS     0.15E+00    1.4     0.00016490      -120.6579732068 -4.04E-04
  Decoupling Energy:                                               0.0000039568
  Recoupling Energy:                                               0.0001168199
     5 OT DIIS     0.15E+00    1.7     0.00007858      -120.6579803380 -7.13E-06
  Decoupling Energy:                                               0.0000040474
  Recoupling Energy:                                               0.0001167169
     6 OT DIIS     0.15E+00    1.4     0.00003671      -120.6579815684 -1.23E-06
  Decoupling Energy:                                               0.0000040058
  Recoupling Energy:                                               0.0001167507
     7 OT DIIS     0.15E+00    1.4     0.00000894      -120.6579819091 -3.41E-07
  Decoupling Energy:                                               0.0000040333
  Recoupling Energy:                                               0.0001167485
     8 OT DIIS     0.15E+00    1.4     0.00000381      -120.6579819326 -2.34E-08
  Decoupling Energy:                                               0.0000040274
  Recoupling Energy:                                               0.0001167505
     9 OT DIIS     0.15E+00    1.4     0.00000091      -120.6579819369 -4.34E-09
  Decoupling Energy:                                               0.0000040238
  Recoupling Energy:                                               0.0001167485
    10 OT DIIS     0.15E+00    1.4     0.00000031      -120.6579819372 -2.68E-10
  Decoupling Energy:                                               0.0000040258
  Recoupling Energy:                                               0.0001167490
    11 OT DIIS     0.15E+00    1.4     0.00000016      -120.6579819372 -2.92E-11
  Decoupling Energy:                                               0.0000040252
  Recoupling Energy:                                               0.0001167492
    12 OT DIIS     0.15E+00    1.7     0.00000006      -120.6579819372 -7.18E-12
  Decoupling Energy:                                               0.0000040251
  Recoupling Energy:                                               0.0001167491
    13 OT DIIS     0.15E+00    1.4     0.00000003      -120.6579819372 -9.52E-13

  *** SCF run converged in    13 steps ***


  Electronic density on regular grids:        -69.9999999981        0.0000000019
  Core density on regular grids:               69.9999999955       -0.0000000045
  Total charge density on r-space grids:       -0.0000000026
  Total charge density g-space grids:          -0.0000000026

  Overlap energy of the core charge distribution:               0.00000489810936
  Self energy of the core charge distribution:               -277.38752277609575
  Core Hamiltonian energy:                                     84.23549107758893
  Hartree energy:                                             111.97998102548810
  Exchange-correlation energy:                                -32.34604475995791
  QM/MM Electrostatic energy:                                  -7.13989140233707

  Total energy:                                              -120.65798193720434

  outer SCF iter =    2 RMS gradient =   0.28E-07 energy =       -120.6579819372
  outer SCF loop converged in   2 iterations or   33 steps


                     TDDFPT initial guess
 ------------------------------------------------------------
     State       Occupied    ->    Virtual        Excitation
     number       orbital          orbital        energy (eV)
 ------------------------------------------------------------
        1           35               36               2.21725
        2           34               36               2.57110
        3           33               36               3.46522
        4           32               36               3.62307
        5           35               37               3.77596

 Number of active states:                        6545

 TDDFPT WAVEFUNCTION OPTIMIZATION

     Step     Time     Convergence     Conv. states
 --------------------------------------------------
        1      7.8      4.9907E-02              0
        2      7.5      2.3938E-02              0
        3      7.9      2.6388E-02              1
        4      7.9      3.4738E-03              1
        5      7.9      1.9553E-03              2
        6      8.0      8.7130E-04              4
        7      7.5      6.7802E-04              4
        8      8.0      1.1402E-04              4
        9     19.0      4.2034E-06              5
 ---------- Restart Davidson iterations -----------
       10     10.5      1.3781E-04              3

 *** TDDFPT run did NOT converge after 10 iteration(s) ***

 R-TDDFPT states of multiplicity 1

          State     Excitation      Transition dipole (a.u.)        Oscillator
          number    energy (eV)       x         y         z       strength (a.u.)
         ------------------------------------------------------------------------
 TDDFPT|       1        2.64921     -0.0858    0.2390   -0.0146        0.00420
 TDDFPT|       2        3.60251      1.4316    0.0463   -1.2149        0.31135
 TDDFPT|       3        3.73724      0.0644    0.0145   -0.1316        0.00199
 TDDFPT|       4        3.87024     -1.0868    0.0078    0.9100        0.19052
 TDDFPT|       5        4.11373     -0.0161   -0.0051   -0.1100        0.00125

 Excitation analysis

   State        Occupied         Virtual        Excitation
   number        orbital         orbital        amplitude
 ---------------------------------------------------------
        1
                   34              36             0.995140
                   35              36            -0.084693
        2
                   35              36             0.841362
                   30              36             0.257799
                   33              36             0.252725
                   32              36             0.245204
                   35              37            -0.159159
                   35              38            -0.143702
                   31              36             0.103725
                   34              36             0.075839
                   33              38            -0.056944
                   28              36             0.056423
                   27              36            -0.054462
        3
                   32              36            -0.692315
                   35              37             0.520889
                   33              36             0.451318
                   35              38            -0.136393
                   35              36             0.106150
                   30              36             0.074569
        4
                   33              36             0.747770
                   35              36            -0.378691
                   32              36             0.347999
                   35              38            -0.327901
                   35              37            -0.191671
                   32              37            -0.083477
                   30              36            -0.075323
                   33              38             0.055060
        5
                   34              37             0.797497
                   31              36            -0.439084
                   35              37            -0.320961
                   32              36            -0.222189
                   33              37            -0.080908
                   32              38            -0.058943

 ENERGY| Total FORCE_EVAL ( QMMM ) energy (a.u.):           -113.529505165807862


 -------------------------------------------------------------------------------
 -                                                                             -
 -                                DBCSR STATISTICS                             -
 -                                                                             -
 -------------------------------------------------------------------------------
 COUNTER                                    TOTAL       BLAS       SMM       ACC
 flops     5 x     3 x     3                 1440       0.0%    100.0%      0.0%
 flops    13 x     3 x     3                 6552       0.0%    100.0%      0.0%
 flops     3 x     3 x     3                15876       0.0%    100.0%      0.0%
 flops     3 x     3 x    10                24120       0.0%    100.0%      0.0%
 flops     3 x     3 x     5                60300       0.0%    100.0%      0.0%
 flops     5 x    27 x     5                86400       0.0%    100.0%      0.0%
 flops    43 x     3 x     3               127710       0.0%    100.0%      0.0%
 flops    49 x     3 x     3               145530       0.0%    100.0%      0.0%
 flops     5 x    32 x    32               163840       0.0%    100.0%      0.0%
 flops     3 x     3 x    32               169344       0.0%    100.0%      0.0%
 flops     3 x    32 x     3               169344       0.0%    100.0%      0.0%
 flops    32 x     3 x     3               169344       0.0%    100.0%      0.0%
 flops    43 x     3 x    10               180600       0.0%    100.0%      0.0%
 flops     5 x     5 x     3               183600       0.0%    100.0%      0.0%
 flops    49 x     3 x    10               205800       0.0%    100.0%      0.0%
 flops     3 x    32 x    10               257280       0.0%    100.0%      0.0%
 flops    32 x     3 x    10               257280       0.0%    100.0%      0.0%
 flops    65 x     3 x     3               386100       0.0%    100.0%      0.0%
 flops    13 x    27 x     5               393120       0.0%    100.0%      0.0%
 flops     5 x    27 x    13               393120       0.0%    100.0%      0.0%
 flops     3 x     3 x    13               407628       0.0%    100.0%      0.0%
 flops    43 x     3 x     5               451500       0.0%    100.0%      0.0%
 flops    49 x     3 x     5               514500       0.0%    100.0%      0.0%
 flops    65 x     3 x    10               546000       0.0%    100.0%      0.0%
 flops     3 x    32 x     5               643200       0.0%    100.0%      0.0%
 flops    32 x     3 x     5               643200       0.0%    100.0%      0.0%
 flops    13 x     5 x     3               742560       0.0%    100.0%      0.0%
 flops     5 x    13 x     3               742560       0.0%    100.0%      0.0%
 flops    13 x    32 x    32               745472       0.0%    100.0%      0.0%
 flops    43 x     3 x    32              1362240       0.0%    100.0%      0.0%
 flops    43 x    32 x     3              1362240       0.0%    100.0%      0.0%
 flops    65 x     3 x     5              1365000       0.0%    100.0%      0.0%
 flops    49 x     3 x    32              1552320       0.0%    100.0%      0.0%
 flops    49 x    32 x     3              1552320       0.0%    100.0%      0.0%
 flops    13 x    27 x    13              1788696       0.0%    100.0%      0.0%
 flops    32 x    32 x     3              1806336       0.0%    100.0%      0.0%
 flops     3 x    32 x    32              1806336       0.0%    100.0%      0.0%
 flops    32 x     3 x    32              1806336       0.0%    100.0%      0.0%
 flops    43 x    32 x    10              1926400       0.0%    100.0%      0.0%
 flops     5 x     5 x    32              1958400       0.0%    100.0%      0.0%
 flops    49 x    32 x    10              2195200       0.0%    100.0%      0.0%
 flops     5 x     3 x     5              2678400       0.0%    100.0%      0.0%
 flops    32 x    32 x    10              2744320       0.0%    100.0%      0.0%
 flops    43 x     3 x    13              3052140       0.0%    100.0%      0.0%
 flops    49 x     3 x    13              3478020       0.0%    100.0%      0.0%
 flops    13 x    13 x     3              3619980       0.0%    100.0%      0.0%
 flops    65 x    32 x     3              4118400       0.0%    100.0%      0.0%
 flops    65 x     3 x    32              4118400       0.0%    100.0%      0.0%
 flops     3 x    32 x    13              4348032       0.0%    100.0%      0.0%
 flops    32 x     3 x    13              4348032       0.0%    100.0%      0.0%
 flops    43 x    32 x     5              4816000       0.0%    100.0%      0.0%
 flops    49 x    32 x     5              5488000       0.0%    100.0%      0.0%
 flops    65 x    32 x    10              5824000       0.0%    100.0%      0.0%
 flops    32 x    32 x     5              6860800       0.0%    100.0%      0.0%
 flops    13 x     5 x    32              7920640       0.0%    100.0%      0.0%
 flops     5 x    13 x    32              7920640       0.0%    100.0%      0.0%
 flops    65 x     3 x    13              9227400       0.0%    100.0%      0.0%
 flops    13 x     3 x     5             12186720       0.0%    100.0%      0.0%
 flops     5 x     3 x    13             12186720       0.0%    100.0%      0.0%
 flops    43 x    32 x    32             14530560       0.0%    100.0%      0.0%
 flops    65 x    32 x     5             14560000       0.0%    100.0%      0.0%
 flops    49 x    32 x    32             16558080       0.0%    100.0%      0.0%
 flops    32 x    32 x    32             19267584       0.0%    100.0%      0.0%
 flops     5 x    32 x     5             29081600       0.0%    100.0%      0.0%
 flops    43 x    32 x    13             32556160       0.0%    100.0%      0.0%
 flops    49 x    32 x    13             37098880       0.0%    100.0%      0.0%
 flops    13 x    13 x    32             38613120       0.0%    100.0%      0.0%
 flops    65 x    32 x    32             43929600       0.0%    100.0%      0.0%
 flops    32 x    32 x    13             46379008       0.0%    100.0%      0.0%
 flops    13 x     3 x    13             55449576       0.0%    100.0%      0.0%
 flops    65 x    32 x    13             98425600       0.0%    100.0%      0.0%
 flops    13 x    32 x     5            132321280       0.0%    100.0%      0.0%
 flops     5 x    32 x    13            132321280       0.0%    100.0%      0.0%
 flops    13 x    32 x    13            602061824       0.0%    100.0%      0.0%
 flops inhomo. stacks                    25489800     100.0%      0.0%      0.0%
 flops total                         1.472896E+09       1.7%     98.3%      0.0%
 flops max/rank                    431.933384E+06       2.4%     97.6%      0.0%
 matmuls inhomo. stacks                      1096     100.0%      0.0%      0.0%
 matmuls total                             317180       0.3%     99.7%      0.0%
 number of processed stacks                103236       1.1%     98.9%      0.0%
 average stack size                                     1.0       3.1       0.0
 marketing flops                     1.529763E+09
 -------------------------------------------------------------------------------
 # multiplications                            981
 max memory usage/rank               1.258402E+09
 # max total images/rank                        5
 # max 3D layers                                1
 # MPI messages exchanged                 2472120
 MPI messages size (bytes):
  total size                         1.788152E+09
  min size                           0.000000E+00
  max size                          16.640000E+03
  average size                     723.327393E+00
 MPI breakdown and total messages size (bytes):
             size <=      128             1983744                  3821040
       128 < size <=     8192              474840               1622553912
      8192 < size <=    32768               13536                161777088
     32768 < size <=   131072                   0                        0
    131072 < size <=  4194304                   0                        0
   4194304 < size <= 16777216                   0                        0
  16777216 < size                               0                        0
 -------------------------------------------------------------------------------

 *** WARNING in dbcsr/mm/dbcsr_mm.F:268 :: Using a non-square number of ***
 *** MPI ranks might lead to poor performance.                          ***
 *** Used ranks: 40                                                     ***
 *** Suggested: 36 81                                                   ***

 -------------------------------------------------------------------------------
 
 MEMORY| Estimated peak process memory [MiB]                                1201

 -------------------------------------------------------------------------------
 -                                                                             -
 -                         MESSAGE PASSING PERFORMANCE                         -
 -                                                                             -
 -------------------------------------------------------------------------------

 ROUTINE             CALLS      AVE VOLUME [Bytes]
 MP_Group              269
 MP_Bcast             1983                2499371.
 MP_Allreduce        10194                  30094.
 MP_Sync                54
 MP_Alltoall          9293                2373671.
 MP_SendRecv          1002                 819200.
 MP_ISendRecv        25506                  39467.
 MP_Wait            133007
 MP_comm_split          48
 MP_ISend           140886                  57248.
 MP_IRecv           140929                  57178.
 MP_Recv                96                   7104.
 MP_Memory          114954
 -------------------------------------------------------------------------------


 -------------------------------------------------------------------------------
 -                                                                             -
 -                           R E F E R E N C E S                               -
 -                                                                             -
 -------------------------------------------------------------------------------
 
 CP2K version 6.1, the CP2K developers group (2018).
 CP2K is freely available from https://www.cp2k.org/ .

 Schuett, Ole; Messmer, Peter; Hutter, Juerg; VandeVondele, Joost. 
 Electronic Structure Calculations on Graphics Processing Units, John Wiley & Sons, Ltd, 173-190 (2016). 
 GPU-Accelerated Sparse Matrix-Matrix Multiplication for Linear Scaling Density Functional Theory.
 http://dx.doi.org/10.1002/9781118670712.ch8


 Borstnik, U; VandeVondele, J; Weber, V; Hutter, J. 
 PARALLEL COMPUTING, 40 (5-6), 47-58 (2014). 
 Sparse matrix multiplication: The distributed block-compressed sparse
 row library.
 http://dx.doi.org/10.1016/j.parco.2014.03.012


 Hutter, J; Iannuzzi, M; Schiffmann, F; VandeVondele, J. 
 WILEY INTERDISCIPLINARY REVIEWS-COMPUTATIONAL MOLECULAR SCIENCE, 4 (1), 15-25 (2014). 
 CP2K: atomistic simulations of condensed matter systems.
 http://dx.doi.org/10.1002/wcms.1159


 VandeVondele, J; Hutter, J. 
 JOURNAL OF CHEMICAL PHYSICS, 127 (11), 114105 (2007). 
 Gaussian basis sets for accurate calculations on molecular systems in
 gas and condensed phases.
 http://dx.doi.org/10.1063/1.2770708


 Laino, T; Mohamed, F; Laio, A; Parrinello, M. 
 JOURNAL OF CHEMICAL THEORY AND COMPUTATION, 2 (5), 1370-1378 (2006). 
 An efficient linear-scaling electrostatic coupling for treating
 periodic boundary conditions in QM/MM simulations.
 http://dx.doi.org/10.1021/ct6001169


 Laino, T; Mohamed, F; Laio, A; Parrinello, M. 
 JOURNAL OF CHEMICAL THEORY AND COMPUTATION, 1 (6), 1176-1184 (2005). 
 An efficient real space multigrid QM/MM electrostatic coupling.
 http://dx.doi.org/10.1021/ct050123f


 Krack, M. 
 THEORETICAL CHEMISTRY ACCOUNTS, 114 (1-3), 145-152 (2005). 
 Pseudopotentials for H to Kr optimized for gradient-corrected
 exchange-correlation functionals.
 http://dx.doi.org/10.1007/s00214-005-0655-y


 VandeVondele, J; Krack, M; Mohamed, F; Parrinello, M; Chassaing, T;
 Hutter, J. COMPUTER PHYSICS COMMUNICATIONS, 167 (2), 103-128 (2005). 
 QUICKSTEP: Fast and accurate density functional calculations using a
 mixed Gaussian and plane waves approach.
 http://dx.doi.org/10.1016/j.cpc.2004.12.014


 Frigo, M; Johnson, SG. 
 PROCEEDINGS OF THE IEEE, 93 (2), 216-231 (2005). 
 The design and implementation of FFTW3.
 http://dx.doi.org/10.1109/JPROC.2004.840301


 Iannuzzi, M; Chassaing, T; Wallman, T; Hutter, J. 
 CHIMIA, 59 (7-8), 499-503 (2005). 
 Ground and excited state density functional calculations with the
 Gaussian and augmented-plane-wave method.
 http://dx.doi.org/10.2533/000942905777676164


 VandeVondele, J; Hutter, J. 
 JOURNAL OF CHEMICAL PHYSICS, 118 (10), 4365-4369 (2003). 
 An efficient orbital transformation method for electronic structure
 calculations.
 http://dx.doi.org/10.1063/1.1543154


 Hartwigsen, C; Goedecker, S; Hutter, J. 
 PHYSICAL REVIEW B, 58 (7), 3641-3662 (1998). 
 Relativistic separable dual-space Gaussian pseudopotentials from H to Rn.
 http://dx.doi.org/10.1103/PhysRevB.58.3641


 Lippert, G; Hutter, J; Parrinello, M. 
 MOLECULAR PHYSICS, 92 (3), 477-487 (1997). 
 A hybrid Gaussian and plane wave density functional scheme.
 http://dx.doi.org/10.1080/002689797170220


 Perdew, JP; Burke, K; Ernzerhof, M. 
 PHYSICAL REVIEW LETTERS, 77 (18), 3865-3868 (1996). 
 Generalized gradient approximation made simple.
 http://dx.doi.org/10.1103/PhysRevLett.77.3865


 Goedecker, S; Teter, M; Hutter, J. 
 PHYSICAL REVIEW B, 54 (3), 1703-1710 (1996). 
 Separable dual-space Gaussian pseudopotentials.
 http://dx.doi.org/10.1103/PhysRevB.54.1703


 BLOCHL, PE. 
 JOURNAL OF CHEMICAL PHYSICS, 103 (17), 7422-7428 (1995). 
 ELECTROSTATIC DECOUPLING OF PERIODIC IMAGES OF PLANE-WAVE-EXPANDED
 DENSITIES AND DERIVED ATOMIC POINT CHARGES.
 http://dx.doi.org/10.1063/1.470314


 -------------------------------------------------------------------------------
 -                                                                             -
 -                                T I M I N G                                  -
 -                                                                             -
 -------------------------------------------------------------------------------
 SUBROUTINE                       CALLS  ASD         SELF TIME        TOTAL TIME
                                MAXIMUM       AVERAGE  MAXIMUM  AVERAGE  MAXIMUM
 CP2K                                 1  1.0    0.129    0.154  154.667  154.674
 qs_energies                          1  2.0    0.000    0.001  141.089  141.095
 qs_energies_properties               1  3.0    0.000    0.000   92.968   92.972
 tddfpt                               1  4.0    0.000    0.001   92.968   92.972
 tddfpt_davidson_solver               2  5.0    0.001    0.001   92.175   92.178
 tddfpt_compute_Aop_evects           10  6.0    0.001    0.001   91.823   91.827
 pw_transfer                       1459  9.6    0.102    0.166   66.091   67.523
 fft_wrap_pw1pw2                   1260 10.7    0.009    0.010   64.491   65.927
 fft_wrap_pw1pw2_230                388 11.4    3.995    4.324   57.245   58.600
 fft3d_ps                          1260 12.7   30.128   32.304   53.433   54.983
 integrate_v_rspace                 133  8.2    2.368    8.801   50.450   52.023
 scf_env_do_scf                       1  3.0    0.000    0.000   47.377   47.379
 scf_env_do_scf_inner_loop           33  4.0    0.001    0.003   45.464   45.466
 qs_rho_update_rho                   85  6.2    0.001    0.001   44.946   44.964
 calculate_rho_elec                  85  7.2    1.861    6.200   44.946   44.963
 potential_pw2rs                    133  9.2    0.078    0.119   41.442   43.015
 density_rs2pw                       85  8.2    0.006    0.007   39.683   41.107
 tddfpt_apply_xc                     50  7.0    0.324    0.341   32.486   32.494
 tddfpt_apply_coulomb                50  7.0    0.001    0.001   31.245   31.246
 rs_pw_transfer                    1091  9.8    0.009    0.010   28.746   29.860
 qs_ks_update_qs_env                 35  5.0    0.000    0.000   29.527   29.534
 rebuild_ks_matrix                   33  6.0    0.000    0.000   29.526   29.533
 qs_ks_build_kohn_sham_matrix        33  7.0    0.004    0.005   29.526   29.532
 mp_alltoall_z22v                  1260 14.7   16.738   19.421   16.738   19.421
 yz_to_x                            559 13.4    2.925    3.054   12.764   15.346
 pw_nn_compose_r                    565  8.7    9.521   11.007   12.189   13.616
 rs_pw_transfer_PW2RS_230           133 11.2    7.581    7.730   11.909   12.203
 mp_waitany                       11362 11.8    8.898   10.945    8.898   10.945
 x_to_yz                            701 13.9    3.612    3.927   10.510   10.850
 sum_up_and_integrate                33  8.0    0.273    0.277   10.465   10.466
 qs_vxc_create                       33  8.0    0.001    0.001   10.385   10.388
 xc_vxc_pw_create                    33  9.0    0.342    0.372   10.384   10.387
 mp_alltoall_d11v                  2943 10.8    7.338    9.159    7.338    9.159
 rs_distribute_matrix               218  8.8    0.009    0.025    7.248    9.066
 rs_pw_transfer_RS2PW_230            86 10.2    3.153    3.722    7.660    8.964
 xc_calc_2nd_deriv                   50  8.0    3.339    3.568    7.320    8.823
 xc_rho_set_and_dset_create          34  9.9    0.224    0.234    6.670    8.451
 qmmm_el_coupling                     1  2.0    0.000    0.000    7.339    7.658
 qmmm_elec_with_gaussian              1  3.0    0.009    0.010    7.337    7.656
 qs_ks_ddapc                         33  8.0    0.001    0.001    6.096    6.213
 qmmm_elec_with_gaussian:spline       1  4.0    0.000    0.000    5.761    6.080
 pw_prolongate_s3                     4  5.0    4.440    4.809    5.761    6.080
 fft_wrap_pw1pw2_60                 218 11.8    0.218    0.241    5.747    6.048
 qmmm_env_create                      1  2.0    0.443    0.448    5.577    5.578
 xc_functional_eval                  34 10.9    0.000    0.000    3.796    5.554
 pbe_lda_eval                        34 11.9    3.796    5.553    3.796    5.553
 rs_pw_transfer_PW2RS_60            133 11.2    2.430    2.546    4.445    4.685
 mp_sum_d                          1895  8.9    2.773    4.476    2.773    4.476
 pw_poisson_solve                    83  8.0    2.681    2.811    4.285    4.294
 pw_gather_p                        559 12.4    3.681    4.206    3.681    4.206
 pw_scatter_p                       701 12.9    3.129    4.188    3.129    4.188
 mp_sendrecv_dm2                   1002 10.3    2.668    4.010    2.668    4.010
 rs_grid_zero                       692  9.7    3.329    3.687    3.329    3.687
 mp_waitall_1                    121430 13.0    2.427    3.331    2.427    3.331
 -------------------------------------------------------------------------------

 The number of warnings for this run is : 2
 
 -------------------------------------------------------------------------------
  **** **** ******  **  PROGRAM ENDED AT                 2020-06-23 10:28:06.761
 ***** ** ***  *** **   PROGRAM RAN ON                              r07c02.bullx
 **    ****   ******    PROGRAM RAN BY                                    vamodi
 ***** **    ** ** **   PROGRAM PROCESS ID                                 26271
  **** **  *******  **  PROGRAM STOPPED IN /scratch/vamodi/s65t_h148d-pt/qm-1/ab
                                           spectra
