 *******************************************************************************
 *                            RESTART INFORMATION                              *
 *******************************************************************************
 *                                                                             *
 *    RESTART FILE NAME: NPT-1_5000.restart                                    *
 *                                                                             *
 * RESTARTED QUANTITIES:                                                       *
 *                       CELL                                                  *
 *                       COORDINATES                                           *
 *                       RANDOM NUMBER GENERATOR                               *
 *                       VELOCITIES                                            *
 *                       MD AVERAGES                                           *
 *                       REAL TIME PROPAGATION                                 *
 *                       PINT BEAD POSITIONS                                   *
 *                       PINT BEAD VELOCITIES                                  *
 *                       PINT NOSE THERMOSTAT                                  *
 *                       PINT GLE THERMOSTAT                                   *
 *                       HELIUM BEAD POSITIONS                                 *
 *                       HELIUM PERMUTATION STATE                              *
 *                       HELIUM FORCES ON SOLUTE                               *
 *                       HELIUM RNG STATE                                      *
 *******************************************************************************

 DBCSR| Multiplication driver                                               XSMM
 DBCSR| Multrec recursion limit                                              512
 DBCSR| Multiplication stack size                                           1000
 DBCSR| Maximum elements for images                                    UNLIMITED
 DBCSR| Multiplicative factor virtual images                                   1
 DBCSR| Multiplication size stacks                                             3
 DBCSR| Number of 3D layers                                               SINGLE
 DBCSR| Use MPI memory allocation                                              T
 DBCSR| Use RMA algorithm                                                      F
 DBCSR| Use Communication thread                                               T
 DBCSR| Communication thread load                                             87


  **** **** ******  **  PROGRAM STARTED AT               2019-03-15 17:22:19.851
 ***** ** ***  *** **   PROGRAM STARTED ON                              nid04199
 **    ****   ******    PROGRAM STARTED BY                              fionabio
 ***** **    ** ** **   PROGRAM PROCESS ID                                 46223
  **** **  *******  **  PROGRAM STARTED IN /fs3/d118/d118/fionabio/BioExcel2/cp2
                                           k_benchmarks/QMMM/MM/4_nodes/test-4

 CP2K| version string:                                          CP2K version 6.1
 CP2K| source code revision number:                                    svn:18464
 CP2K| cp2kflags: omp libint fftw3 libxc elpa=201605 elpa_qr parallel mpi3 scala
 CP2K|            pack xsmm libgrid has_no_shared_glibc max_contr=4 statm_resident plumed2
 CP2K| is freely available from                            https://www.cp2k.org/
 CP2K| Program compiled at                          Fri Feb 15 14:30:53 GMT 2019
 CP2K| Program compiled on                                            eslogin007
 CP2K| Program compiled for                                       ARCHER_craypat
 CP2K| Data directory path    /work/d118/d118/fionabio/BioExcel2/cp2k_benchmarks
 CP2K| Input file name                                       fr_qmmm_40steps.inp

 GLOBAL| Force Environment number                                              1
 GLOBAL| Basis set file name                                           BASIS_SET
 GLOBAL| Potential file name                                           POTENTIAL
 GLOBAL| MM Potential file name                                     MM_POTENTIAL
 GLOBAL| Coordinate file name                                      __STD_INPUT__
 GLOBAL| Method name                                                        CP2K
 GLOBAL| Project name                                                       QMMM
 GLOBAL| Preferred FFT library                                             FFTW3
 GLOBAL| Preferred diagonalization lib.                                       SL
 GLOBAL| Run type                                                             MD
 GLOBAL| All-to-all communication in single precision                          F
 GLOBAL| FFTs using library dependent lengths                                  F
 GLOBAL| Global print level                                                  LOW
 GLOBAL| Total number of message passing processes                            96
 GLOBAL| Number of threads for this process                                    1
 GLOBAL| This output is from process                                           0
 GLOBAL| CPU model name :  Intel(R) Xeon(R) CPU E5-2697 v2 @ 2.70GHz

 MEMORY| system memory details [Kb]
 MEMORY|                        rank 0           min           max       average
 MEMORY| MemTotal             66072152      66072152      66072152      66072152
 MEMORY| MemFree              56770552      56770552      56877240      56850147
 MEMORY| Buffers                     0             0             0             0
 MEMORY| Cached                 328496        280200        328496        292282
 MEMORY| Slab                   284100        272064        284100        275810
 MEMORY| SReclaimable             8736          8540          8776          8685
 MEMORY| MemLikelyFree        57107784      57107784      57166128      57151114



                      ************* ******** ***********   
                     ************* **********************  
                     ****     **** ****      ***********   
                     ******** ****  *******     ****       
                     *******  ****   *******   ****        
                     ****     ****       ****  ****        
                     ****     **** **********  ****        
                      ****     **** ********    ****       
                     FRONTIERS IN SIMULATION TECHNOLOGY    
                                                           
                        C.J. Mundy, S. Balasubramanian,    
                     Ken Bagchi, J. Hutter, Ari Seitsonen  
                      IFW Kuo, T. Laino, J. VandeVondele   
                                 Version 1.0               

                                                           


 EWALD| Summation is done by:                                               SPME
 EWALD| Alpha parameter [       ANGSTROM^-1]                              0.4000
 EWALD| Real Space Cutoff [          ANGSTROM]                            8.4348
 EWALD| G-space max. Miller index                         80        80        80
 EWALD| Spline interpolation order                                             6

 FORCEFIELD| WARNING: A non Critical ForceField parameter is missing! CP2K GOES!
 FORCEFIELD| Non critical parameters are:Urey-Bradley,Torsions,Impropers, Opbends and 1-4
 FORCEFIELD| All missing parameters will not contribute to the potential energy!
 FORCEFIELD| Activate the print key FF_INFO to have a list of missing parameters

 CHARGE_INFO| Total Charge of the Classical System:                    -0.000000

 SPLINE_INFO| Generating 56953 splines for NONBONDED14 interactions 
              Due to 337 different atomic kinds
  ...5695  ...11390  ...17085  ...22780  ...28475  ...34170  ...39865  ...45560  ...51255  ...56950
 SPLINE_INFO| Number of unique splines computed:            137
 SPLINE_INFO| Done

 SPLINE_INFO| Generating 56953 splines for NONBONDED interactions 
              Due to 337 different atomic kinds
  ...5695  ...11390  ...17085  ...22780  ...28475  ...34170  ...39865  ...45560  ...51255  ...56950
 SPLINE_INFO| Number of unique splines computed:            137
 SPLINE_INFO| Done

 *******************************************************************************
 *******************************************************************************
 **                                                                           **
 **     #####                         ##              ##                      **
 **    ##   ##            ##          ##              ##                      **
 **   ##     ##                       ##            ######                    **
 **   ##     ##  ##   ##  ##   #####  ##  ##   ####   ##    #####    #####    **
 **   ##     ##  ##   ##  ##  ##      ## ##   ##      ##   ##   ##  ##   ##   **
 **   ##  ## ##  ##   ##  ##  ##      ####     ###    ##   ######   ######    **
 **    ##  ###   ##   ##  ##  ##      ## ##      ##   ##   ##       ##        **
 **     #######   #####   ##   #####  ##  ##  ####    ##    #####   ##        **
 **           ##                                                    ##        **
 **                                                                           **
 **                                                ... make the atoms dance   **
 **                                                                           **
 **            Copyright (C) by CP2K developers group (2000 - 2018)           **
 **                                                                           **
 *******************************************************************************


 TOTAL NUMBERS AND MAXIMUM NUMBERS

  Total number of            - Atomic kinds:                                   5
                             - Atoms:                                         22
                             - Shell sets:                                    44
                             - Shells:                                        94
                             - Primitive Cartesian functions:                110
                             - Cartesian basis functions:                    236
                             - Spherical basis functions:                    222

  Maximum angular momentum of- Orbital basis functions:                        2
                             - Local part of the GTH pseudopotential:          2
                             - Non-local part of the GTH pseudopotential:      0


 SCF PARAMETERS         Density guess:                                    ATOMIC
                        --------------------------------------------------------
                        max_scf:                                              30
                        max_scf_history:                                       0
                        max_diis:                                              4
                        --------------------------------------------------------
                        eps_scf:                                        1.00E-06
                        eps_scf_history:                                0.00E+00
                        eps_diis:                                       1.00E-01
                        eps_eigval:                                     1.00E-05
                        --------------------------------------------------------
                        level_shift [a.u.]:                                 0.00
                        --------------------------------------------------------
                        Outer loop SCF in use 
                        No variables optimised in outer loop
                        eps_scf                                         1.00E-06
                        max_scf                                               10
                        No outer loop optimization
                        step_size                                       5.00E-01

 *******************************************************************************
 *******************************************************************************
 **                                                                           **
 **             #######  ##     ## ##     ## ##     ##                        **
 **            ##     ## ###   ### ###   ### ###   ###                        **
 **            ##     ## #### #### #### #### #### ####                        **
 **            ##     ## ## ### ## ## ### ## ## ### ##                        **
 **            ##  ## ## ##     ## ##     ## ##     ##                        **
 **            ##    ##  ##     ## ##     ## ##     ##  T.Laino and F.Mohamed **
 **             ##### ## ##     ## ##     ## ##     ##  2005 - 2015           **
 **                                                                           **
 **                                                     Calculation Started.. **
 *******************************************************************************
 *******************************************************************************

 MD| Molecular Dynamics Protocol 
 MD| Ensemble Type                                                           NVT
 MD| Number of Time Steps                                                     40
 MD| Time Step [fs]                                                         1.00
 MD| Temperature [K]                                                      298.00
 MD| Temperature tolerance [K]                                              0.00
 MD| Print MD information every                                        1 step(s)
 MD| File type     Print frequency[steps]                             File names
 MD| Coordinates          100                                     QMMM-pos-1.xyz
 MD| Velocities             1                                     QMMM-vel-1.xyz
 MD| Energies               1                                        QMMM-1.ener
 MD| Dump                1000                                     QMMM-1.restart

 ROT| Rotational Analysis Info 
 ROT| Principal axes and moments of inertia in atomic units:
 ROT|                                1                 2                 3
 ROT| EIGENVALUES            0.380744018E+14   0.410401842E+14   0.421624233E+14
 ROT|      X                    -0.999675713       0.004797517      -0.025009065
 ROT|      Y                     0.004211641       0.999716683       0.023426799
 ROT|      Z                    -0.025114370      -0.023313873       0.999412693
 ROT| Numer of Rotovibrational vectors:     6

 Calculation of degrees of freedom
                                                      Number of atoms:    297610
                                 Number of Intramolecular constraints:         0
                                 Number of Intermolecular constraints:         0
                                  Invariants(translation + rotations):         3
                                                   Degrees of freedom:    892827


 Restraints Information
                                  Number of Intramolecular restraints:         0
                                  Number of Intermolecular restraints:         0

 THERMOSTAT| Thermostat Info for PARTICLES
 THERMOSTAT| Type of thermostat                               Nose-Hoover-Chains
 THERMOSTAT| Nose-Hoover-Chain length                                          3
 THERMOSTAT| Nose-Hoover-Chain time constant [  fs]                       100.00
 THERMOSTAT| Order of Yoshida integrator                                       3
 THERMOSTAT| Number of multiple time steps                                     2
 THERMOSTAT| Initial Potential Energy                                   0.000000
 THERMOSTAT| Initial Kinetic Energy                                     0.000472
 THERMOSTAT| End of Thermostat Info for PARTICLES

 ************************** Velocities initialization **************************
 Initial Temperature                                                    298.81 K
 COM velocity:            0.000000000000     -0.000000000000     -0.000000000000
 *******************************************************************************


  Translating the system in order to center the QM fragment in the QM box.

 Number of electrons:                                                         70
 Number of occupied orbitals:                                                 35
 Number of molecular orbitals:                                                35

 Number of orbital functions:                                                222
 Number of independent orbital functions:                                    222

 Extrapolation method: initial_guess


 SCF WAVEFUNCTION OPTIMIZATION

  ----------------------------------- OT ---------------------------------------
  Minimizer      : DIIS                : direct inversion
                                         in the iterative subspace
                                         using   7 DIIS vectors
                                         safer DIIS on
  Preconditioner : FULL_SINGLE_INVERSE : inversion of 
                                         H + eS - 2*(Sc)(c^T*H*c+const)(Sc)^T
  Precond_solver : DEFAULT
  stepsize       :    0.08000000                  energy_gap     :    0.08000000
  eps_taylor     :   0.10000E-15                  max_taylor     :             4
  ----------------------------------- OT ---------------------------------------

  Step     Update method      Time    Convergence         Total energy    Change
  ------------------------------------------------------------------------------
     1 OT DIIS     0.80E-01    2.2     0.08655377      -106.7221608654 -1.07E+02
     2 OT DIIS     0.80E-01    2.6     0.06591625      -109.8792129749 -3.16E+00
     3 OT DIIS     0.80E-01    2.6     0.04578883      -111.1846395314 -1.31E+00
     4 OT DIIS     0.80E-01    2.6     0.03073600      -112.2462115747 -1.06E+00
     5 OT DIIS     0.80E-01    2.6     0.02182160      -112.7311117953 -4.85E-01
     6 OT DIIS     0.80E-01    2.6     0.01454160      -113.1138770197 -3.83E-01
     7 OT DIIS     0.80E-01    2.6     0.01183433      -113.2503139118 -1.36E-01
     8 OT DIIS     0.80E-01    2.6     0.00825364      -113.3718990965 -1.22E-01
     9 OT DIIS     0.80E-01    2.6     0.00604101      -113.4315413198 -5.96E-02
    10 OT DIIS     0.80E-01    2.6     0.00432983      -113.4720003507 -4.05E-02
    11 OT DIIS     0.80E-01    2.6     0.00299448      -113.4974926689 -2.55E-02
    12 OT DIIS     0.80E-01    2.6     0.00221113      -113.5096868811 -1.22E-02
    13 OT DIIS     0.80E-01    2.6     0.00157574      -113.5174030326 -7.72E-03
    14 OT DIIS     0.80E-01    2.6     0.00118631      -113.5212214554 -3.82E-03
    15 OT DIIS     0.80E-01    2.6     0.00090119      -113.5234313169 -2.21E-03
    16 OT DIIS     0.80E-01    2.7     0.00069465      -113.5248434254 -1.41E-03
    17 OT DIIS     0.80E-01    2.6     0.00052934      -113.5257652216 -9.22E-04
    18 OT DIIS     0.80E-01    2.7     0.00042799      -113.5262801264 -5.15E-04
    19 OT DIIS     0.80E-01    2.6     0.00035227      -113.5266248051 -3.45E-04
    20 OT DIIS     0.80E-01    2.6     0.00029176      -113.5268483297 -2.24E-04
    21 OT DIIS     0.80E-01    2.6     0.00024489      -113.5270114719 -1.63E-04
    22 OT DIIS     0.80E-01    2.6     0.00020893      -113.5271372651 -1.26E-04
    23 OT DIIS     0.80E-01    2.6     0.00017717      -113.5272327232 -9.55E-05
    24 OT DIIS     0.80E-01    2.6     0.00015276      -113.5273020130 -6.93E-05
    25 OT DIIS     0.80E-01    2.6     0.00013102      -113.5273600536 -5.80E-05
    26 OT DIIS     0.80E-01    2.7     0.00011429      -113.5274030082 -4.30E-05
    27 OT DIIS     0.80E-01    2.6     0.00010002      -113.5274374017 -3.44E-05
    28 OT DIIS     0.80E-01    2.6     0.00008821      -113.5274607194 -2.33E-05
    29 OT DIIS     0.80E-01    2.6     0.00007746      -113.5274808527 -2.01E-05
    30 OT DIIS     0.80E-01    2.6     0.00006655      -113.5274997210 -1.89E-05

  Leaving inner SCF loop after reaching    30 steps.


  Electronic density on regular grids:        -69.9999999944        0.0000000056
  Core density on regular grids:               69.9999999957       -0.0000000043
  Total charge density on r-space grids:        0.0000000013
  Total charge density g-space grids:           0.0000000013

  Overlap energy of the core charge distribution:               0.00000452389908
  Self energy of the core charge distribution:               -278.09582761455005
  Core Hamiltonian energy:                                     84.46893322147177
  Hartree energy:                                             112.47665011353676
  Exchange-correlation energy:                                -31.89471974797237
  QM/MM Electrostatic energy:                                  -0.48254021734810

  Total energy:                                              -113.52749972096291

  outer SCF iter =    1 RMS gradient =   0.67E-04 energy =       -113.5274997210

  ----------------------------------- OT ---------------------------------------
  Minimizer      : DIIS                : direct inversion
                                         in the iterative subspace
                                         using   7 DIIS vectors
                                         safer DIIS on
  Preconditioner : FULL_SINGLE_INVERSE : inversion of 
                                         H + eS - 2*(Sc)(c^T*H*c+const)(Sc)^T
  Precond_solver : DEFAULT
  stepsize       :    0.08000000                  energy_gap     :    0.08000000
  eps_taylor     :   0.10000E-15                  max_taylor     :             4
  ----------------------------------- OT ---------------------------------------

  Step     Update method      Time    Convergence         Total energy    Change
  ------------------------------------------------------------------------------
     1 OT DIIS     0.80E-01    5.4     0.00025347      -113.5275110297 -1.13E-05
     2 OT DIIS     0.80E-01    2.6     0.00014108      -113.5275385500 -2.75E-05
     3 OT DIIS     0.80E-01    2.6     0.00011596      -113.5275466865 -8.14E-06
     4 OT DIIS     0.80E-01    2.6     0.00006209      -113.5275509251 -4.24E-06
     5 OT DIIS     0.80E-01    2.6     0.00003772      -113.5275521200 -1.19E-06
     6 OT DIIS     0.80E-01    2.6     0.00001582      -113.5275526530 -5.33E-07
     7 OT DIIS     0.80E-01    2.6     0.00000906      -113.5275527799 -1.27E-07
     8 OT DIIS     0.80E-01    2.6     0.00000586      -113.5275528038 -2.39E-08
     9 OT DIIS     0.80E-01    2.6     0.00000278      -113.5275528122 -8.44E-09
    10 OT DIIS     0.80E-01    2.6     0.00000163      -113.5275528148 -2.64E-09
    11 OT DIIS     0.80E-01    2.6     0.00000087      -113.5275528157 -8.71E-10

  *** SCF run converged in    11 steps ***


  Electronic density on regular grids:        -69.9999999944        0.0000000056
  Core density on regular grids:               69.9999999957       -0.0000000043
  Total charge density on r-space grids:        0.0000000013
  Total charge density g-space grids:           0.0000000013

  Overlap energy of the core charge distribution:               0.00000452389908
  Self energy of the core charge distribution:               -278.09582761455005
  Core Hamiltonian energy:                                     84.46868446252962
  Hartree energy:                                             112.47684991787402
  Exchange-correlation energy:                                -31.89465685956960
  QM/MM Electrostatic energy:                                  -0.48260724590010

  Total energy:                                              -113.52755281571704

  outer SCF iter =    2 RMS gradient =   0.87E-06 energy =       -113.5275528157
  outer SCF loop converged in   2 iterations or   41 steps


 ENERGY| Total FORCE_EVAL ( QMMM ) energy (a.u.):          -1576.543507505759408


 MD_ENERGIES| Initialization proceeding


 ******************************** GO CP2K GO! **********************************
 INITIAL POTENTIAL ENERGY[hartree]     =                     -0.157654350751E+04
 TOTAL INITIAL KINETIC ENERGY[hartree] =                      0.422425160122E+03
 QM INITIAL KINETIC ENERGY[hartree]    =                      0.402190909529E-01
 TOTAL INITIAL TEMPERATURE[K]          =                                 298.806
 QM INITIAL TEMPERATURE[K]             =                                 384.854
 INITIAL VOLUME[bohr^3]                =                      0.205752672354E+08
 INITIAL CELL LNTHS[bohr]   =      0.2895001E+03   0.2703333E+03   0.2629040E+03
 INITIAL CELL ANGLS[deg]    =      0.9000000E+02   0.9000000E+02   0.9000000E+02
 ******************************** GO CP2K GO! **********************************

  Translating the system in order to center the QM fragment in the QM box.

 Number of electrons:                                                         70
 Number of occupied orbitals:                                                 35
 Number of molecular orbitals:                                                35

 Number of orbital functions:                                                222
 Number of independent orbital functions:                                    222

 Extrapolation method: ASPC


 SCF WAVEFUNCTION OPTIMIZATION

  ----------------------------------- OT ---------------------------------------
  Minimizer      : DIIS                : direct inversion
                                         in the iterative subspace
                                         using   7 DIIS vectors
                                         safer DIIS on
  Preconditioner : FULL_SINGLE_INVERSE : inversion of 
                                         H + eS - 2*(Sc)(c^T*H*c+const)(Sc)^T
  Precond_solver : DEFAULT
  stepsize       :    0.08000000                  energy_gap     :    0.08000000
  eps_taylor     :   0.10000E-15                  max_taylor     :             4
  ----------------------------------- OT ---------------------------------------

  Step     Update method      Time    Convergence         Total energy    Change
  ------------------------------------------------------------------------------
     1 OT DIIS     0.80E-01    2.1     0.00134820      -113.6376838033 -1.14E+02
     2 OT DIIS     0.80E-01    2.6     0.00074567      -113.6384423674 -7.59E-04
     3 OT DIIS     0.80E-01    2.6     0.00053032      -113.6386741480 -2.32E-04
     4 OT DIIS     0.80E-01    2.6     0.00036692      -113.6387814848 -1.07E-04
     5 OT DIIS     0.80E-01    2.6     0.00014059      -113.6388105572 -2.91E-05
     6 OT DIIS     0.80E-01    2.6     0.00007349      -113.6388175562 -7.00E-06
     7 OT DIIS     0.80E-01    2.6     0.00004644      -113.6388194989 -1.94E-06
     8 OT DIIS     0.80E-01    2.6     0.00002060      -113.6388199843 -4.85E-07
     9 OT DIIS     0.80E-01    2.6     0.00000884      -113.6388201300 -1.46E-07
    10 OT DIIS     0.80E-01    2.6     0.00000530      -113.6388201682 -3.82E-08
    11 OT DIIS     0.80E-01    2.6     0.00000304      -113.6388201810 -1.28E-08
    12 OT DIIS     0.80E-01    2.6     0.00000208      -113.6388201842 -3.14E-09
    13 OT DIIS     0.80E-01    2.6     0.00000111      -113.6388201853 -1.13E-09
    14 OT DIIS     0.80E-01    2.6     0.00000083      -113.6388201857 -4.28E-10

  *** SCF run converged in    14 steps ***


  Electronic density on regular grids:        -69.9999999986        0.0000000014
  Core density on regular grids:               69.9999999957       -0.0000000043
  Total charge density on r-space grids:       -0.0000000029
  Total charge density g-space grids:          -0.0000000029

  Overlap energy of the core charge distribution:               0.00000388952928
  Self energy of the core charge distribution:               -278.09582761455005
  Core Hamiltonian energy:                                     84.46070016850172
  Hartree energy:                                             112.47658061611152
  Exchange-correlation energy:                                -31.89296288677991
  QM/MM Electrostatic energy:                                  -0.58731435852318

  Total energy:                                              -113.63882018571060

  outer SCF iter =    1 RMS gradient =   0.83E-06 energy =       -113.6388201857
  outer SCF loop converged in   1 iterations or   14 steps


 ENERGY| Total FORCE_EVAL ( QMMM ) energy (a.u.):          -1576.246637113700217


 *******************************************************************************
 ENSEMBLE TYPE                =                                              NVT
 STEP NUMBER                  =                                                1
 TIME [fs]                    =                                         1.000000
 CONSERVED QUANTITY [hartree] =                              -0.115404512975E+04

                                              INSTANTANEOUS             AVERAGES
 CPU TIME [s]                 =                      294.77               294.77
 ENERGY DRIFT PER ATOM [K]    =          0.771858253444E-01   0.000000000000E+00
 POTENTIAL ENERGY[hartree]    =         -0.157624663711E+04  -0.157624663711E+04
 TOTAL KINETIC ENERGY[hartree]=          0.422191988418E+03   0.422191988418E+03
 QM KINETIC ENERGY[hartree]   =          0.451885609613E-01   0.451885609613E-01
 TOTAL TEMPERATURE[K]         =                     298.641              298.641
 QM TEMPERATURE[K]            =                     432.406              432.406
 *******************************************************************************


  Translating the system in order to center the QM fragment in the QM box.

 Number of electrons:                                                         70
 Number of occupied orbitals:                                                 35
 Number of molecular orbitals:                                                35

 Number of orbital functions:                                                222
 Number of independent orbital functions:                                    222

 Extrapolation method: ASPC


 SCF WAVEFUNCTION OPTIMIZATION

  ----------------------------------- OT ---------------------------------------
  Minimizer      : DIIS                : direct inversion
                                         in the iterative subspace
                                         using   7 DIIS vectors
                                         safer DIIS on
  Preconditioner : FULL_SINGLE_INVERSE : inversion of 
                                         H + eS - 2*(Sc)(c^T*H*c+const)(Sc)^T
  Precond_solver : DEFAULT
  stepsize       :    0.08000000                  energy_gap     :    0.08000000
  eps_taylor     :   0.10000E-15                  max_taylor     :             4
  ----------------------------------- OT ---------------------------------------

  Step     Update method      Time    Convergence         Total energy    Change
  ------------------------------------------------------------------------------
     1 OT DIIS     0.80E-01    2.1     0.00059311      -113.7668424221 -1.14E+02
     2 OT DIIS     0.80E-01    2.6     0.00031537      -113.7669940170 -1.52E-04
     3 OT DIIS     0.80E-01    2.6     0.00024128      -113.7670397705 -4.58E-05
     4 OT DIIS     0.80E-01    2.6     0.00015919      -113.7670557936 -1.60E-05
     5 OT DIIS     0.80E-01    2.6     0.00005287      -113.7670615050 -5.71E-06
     6 OT DIIS     0.80E-01    2.6     0.00002795      -113.7670627494 -1.24E-06
     7 OT DIIS     0.80E-01    2.6     0.00001232      -113.7670630620 -3.13E-07
     8 OT DIIS     0.80E-01    2.6     0.00000739      -113.7670631145 -5.25E-08
     9 OT DIIS     0.80E-01    2.6     0.00000391      -113.7670631277 -1.32E-08
    10 OT DIIS     0.80E-01    2.6     0.00000223      -113.7670631329 -5.22E-09
    11 OT DIIS     0.80E-01    2.6     0.00000105      -113.7670631346 -1.64E-09
    12 OT DIIS     0.80E-01    2.6     0.00000059      -113.7670631349 -3.77E-10

  *** SCF run converged in    12 steps ***


  Electronic density on regular grids:        -70.0000000033       -0.0000000033
  Core density on regular grids:               69.9999999957       -0.0000000043
  Total charge density on r-space grids:       -0.0000000076
  Total charge density g-space grids:          -0.0000000076

  Overlap energy of the core charge distribution:               0.00000331208233
  Self energy of the core charge distribution:               -278.09582761455005
  Core Hamiltonian energy:                                     84.44533623660233
  Hartree energy:                                             112.48093900907668
  Exchange-correlation energy:                                -31.88996835664389
  QM/MM Electrostatic energy:                                  -0.70754572149665

  Total energy:                                              -113.76706313492923

  outer SCF iter =    1 RMS gradient =   0.59E-06 energy =       -113.7670631349
  outer SCF loop converged in   1 iterations or   12 steps


 ENERGY| Total FORCE_EVAL ( QMMM ) energy (a.u.):          -1576.736362565031868


 *******************************************************************************
 ENSEMBLE TYPE                =                                              NVT
 STEP NUMBER                  =                                                2
 TIME [fs]                    =                                         2.000000
 CONSERVED QUANTITY [hartree] =                              -0.115408596979E+04

                                              INSTANTANEOUS             AVERAGES
 CPU TIME [s]                 =                      103.66               199.21
 ENERGY DRIFT PER ATOM [K]    =          0.338531030403E-01   0.169265515202E-01
 POTENTIAL ENERGY[hartree]    =         -0.157673636257E+04  -0.157649149984E+04
 TOTAL KINETIC ENERGY[hartree]=          0.422631625758E+03   0.422411807088E+03
 QM KINETIC ENERGY[hartree]   =          0.516210046502E-01   0.484047828058E-01
 TOTAL TEMPERATURE[K]         =                     298.952              298.797
 QM TEMPERATURE[K]            =                     493.958              463.182
 *******************************************************************************


  Translating the system in order to center the QM fragment in the QM box.

 Number of electrons:                                                         70
 Number of occupied orbitals:                                                 35
 Number of molecular orbitals:                                                35

 Number of orbital functions:                                                222
 Number of independent orbital functions:                                    222

 Extrapolation method: ASPC


 SCF WAVEFUNCTION OPTIMIZATION

  ----------------------------------- OT ---------------------------------------
  Minimizer      : DIIS                : direct inversion
                                         in the iterative subspace
                                         using   7 DIIS vectors
                                         safer DIIS on
  Preconditioner : FULL_SINGLE_INVERSE : inversion of 
                                         H + eS - 2*(Sc)(c^T*H*c+const)(Sc)^T
  Precond_solver : DEFAULT
  stepsize       :    0.08000000                  energy_gap     :    0.08000000
  eps_taylor     :   0.10000E-15                  max_taylor     :             4
  ----------------------------------- OT ---------------------------------------

  Step     Update method      Time    Convergence         Total energy    Change
  ------------------------------------------------------------------------------
     1 OT DIIS     0.80E-01    2.1     0.00034465      -113.9022638306 -1.14E+02
     2 OT DIIS     0.80E-01    2.6     0.00019657      -113.9023070910 -4.33E-05
     3 OT DIIS     0.80E-01    2.6     0.00012403      -113.9023185848 -1.15E-05
     4 OT DIIS     0.80E-01    2.6     0.00005927      -113.9023255128 -6.93E-06
     5 OT DIIS     0.80E-01    2.6     0.00003986      -113.9023265908 -1.08E-06
     6 OT DIIS     0.80E-01    2.6     0.00001568      -113.9023269711 -3.80E-07
     7 OT DIIS     0.80E-01    2.6     0.00000729      -113.9023270767 -1.06E-07
     8 OT DIIS     0.80E-01    2.6     0.00000388      -113.9023271020 -2.53E-08
     9 OT DIIS     0.80E-01    2.6     0.00000229      -113.9023271064 -4.44E-09
    10 OT DIIS     0.80E-01    2.6     0.00000117      -113.9023271080 -1.62E-09
    11 OT DIIS     0.80E-01    2.6     0.00000058      -113.9023271086 -5.47E-10

  *** SCF run converged in    11 steps ***


  Electronic density on regular grids:        -70.0000000056       -0.0000000056
  Core density on regular grids:               69.9999999957       -0.0000000043
  Total charge density on r-space grids:       -0.0000000099
  Total charge density g-space grids:          -0.0000000099

  Overlap energy of the core charge distribution:               0.00000322761564
  Self energy of the core charge distribution:               -278.09582761455005
  Core Hamiltonian energy:                                     84.43422010967110
  Hartree energy:                                             112.48529523116888
  Exchange-correlation energy:                                -31.88862298693611
  QM/MM Electrostatic energy:                                  -0.83739507554560

  Total energy:                                              -113.90232710857612

  outer SCF iter =    1 RMS gradient =   0.58E-06 energy =       -113.9023271086
  outer SCF loop converged in   1 iterations or   11 steps


 ENERGY| Total FORCE_EVAL ( QMMM ) energy (a.u.):          -1577.436929185383860


 *******************************************************************************
 ENSEMBLE TYPE                =                                              NVT
 STEP NUMBER                  =                                                3
 TIME [fs]                    =                                         3.000000
 CONSERVED QUANTITY [hartree] =                              -0.115417546166E+04

                                              INSTANTANEOUS             AVERAGES
 CPU TIME [s]                 =                      101.04               166.49
 ENERGY DRIFT PER ATOM [K]    =         -0.611009043316E-01  -0.908260043042E-02
 POTENTIAL ENERGY[hartree]    =         -0.157743692919E+04  -0.157680664295E+04
 TOTAL KINETIC ENERGY[hartree]=          0.423233166677E+03   0.422685593617E+03
 QM KINETIC ENERGY[hartree]   =          0.560789574395E-01   0.509628410170E-01
 TOTAL TEMPERATURE[K]         =                     299.378              298.990
 QM TEMPERATURE[K]            =                     536.616              487.660
 *******************************************************************************


  Translating the system in order to center the QM fragment in the QM box.

 Number of electrons:                                                         70
 Number of occupied orbitals:                                                 35
 Number of molecular orbitals:                                                35

 Number of orbital functions:                                                222
 Number of independent orbital functions:                                    222

 Extrapolation method: ASPC


 SCF WAVEFUNCTION OPTIMIZATION

  ----------------------------------- OT ---------------------------------------
  Minimizer      : DIIS                : direct inversion
                                         in the iterative subspace
                                         using   7 DIIS vectors
                                         safer DIIS on
  Preconditioner : FULL_SINGLE_INVERSE : inversion of 
                                         H + eS - 2*(Sc)(c^T*H*c+const)(Sc)^T
  Precond_solver : DEFAULT
  stepsize       :    0.08000000                  energy_gap     :    0.08000000
  eps_taylor     :   0.10000E-15                  max_taylor     :             4
  ----------------------------------- OT ---------------------------------------

  Step     Update method      Time    Convergence         Total energy    Change
  ------------------------------------------------------------------------------
     1 OT DIIS     0.80E-01    2.1     0.00047913      -113.9659272765 -1.14E+02
     2 OT DIIS     0.80E-01    2.6     0.00023260      -113.9660103036 -8.30E-05
     3 OT DIIS     0.80E-01    2.6     0.00014286      -113.9660284380 -1.81E-05
     4 OT DIIS     0.80E-01    2.6     0.00008317      -113.9660367835 -8.35E-06
     5 OT DIIS     0.80E-01    2.6     0.00004285      -113.9660389183 -2.13E-06
     6 OT DIIS     0.80E-01    2.6     0.00002213      -113.9660395575 -6.39E-07
     7 OT DIIS     0.80E-01    2.6     0.00000832      -113.9660397472 -1.90E-07
     8 OT DIIS     0.80E-01    2.6     0.00000489      -113.9660397764 -2.92E-08
     9 OT DIIS     0.80E-01    2.6     0.00000280      -113.9660397838 -7.35E-09
    10 OT DIIS     0.80E-01    2.6     0.00000149      -113.9660397867 -2.91E-09
    11 OT DIIS     0.80E-01    2.6     0.00000068      -113.9660397876 -8.83E-10

  *** SCF run converged in    11 steps ***


  Electronic density on regular grids:        -70.0000000061       -0.0000000061
  Core density on regular grids:               69.9999999957       -0.0000000043
  Total charge density on r-space grids:       -0.0000000104
  Total charge density g-space grids:          -0.0000000104

  Overlap energy of the core charge distribution:               0.00000356178779
  Self energy of the core charge distribution:               -278.09582761455005
  Core Hamiltonian energy:                                     84.42598195798467
  Hartree energy:                                             112.49002814147036
  Exchange-correlation energy:                                -31.88862861936403
  QM/MM Electrostatic energy:                                  -0.89759721489107

  Total energy:                                              -113.96603978756235

  outer SCF iter =    1 RMS gradient =   0.68E-06 energy =       -113.9660397876
  outer SCF loop converged in   1 iterations or   11 steps


 ENERGY| Total FORCE_EVAL ( QMMM ) energy (a.u.):          -1577.193541460283313


 *******************************************************************************
 ENSEMBLE TYPE                =                                              NVT
 STEP NUMBER                  =                                                4
 TIME [fs]                    =                                         4.000000
 CONSERVED QUANTITY [hartree] =                              -0.115411226539E+04

                                              INSTANTANEOUS             AVERAGES
 CPU TIME [s]                 =                      100.27               149.93
 ENERGY DRIFT PER ATOM [K]    =          0.595255634392E-02  -0.532381123683E-02
 POTENTIAL ENERGY[hartree]    =         -0.157719354146E+04  -0.157690336758E+04
 TOTAL KINETIC ENERGY[hartree]=          0.423043065593E+03   0.422774961611E+03
 QM KINETIC ENERGY[hartree]   =          0.589683645371E-01   0.529642218970E-01
 TOTAL TEMPERATURE[K]         =                     299.243              299.054
 QM TEMPERATURE[K]            =                     564.264              506.811
 *******************************************************************************


  Translating the system in order to center the QM fragment in the QM box.

 Number of electrons:                                                         70
 Number of occupied orbitals:                                                 35
 Number of molecular orbitals:                                                35

 Number of orbital functions:                                                222
 Number of independent orbital functions:                                    222

 Extrapolation method: ASPC


 SCF WAVEFUNCTION OPTIMIZATION

  ----------------------------------- OT ---------------------------------------
  Minimizer      : DIIS                : direct inversion
                                         in the iterative subspace
                                         using   7 DIIS vectors
                                         safer DIIS on
  Preconditioner : FULL_SINGLE_INVERSE : inversion of 
                                         H + eS - 2*(Sc)(c^T*H*c+const)(Sc)^T
  Precond_solver : DEFAULT
  stepsize       :    0.08000000                  energy_gap     :    0.08000000
  eps_taylor     :   0.10000E-15                  max_taylor     :             4
  ----------------------------------- OT ---------------------------------------

  Step     Update method      Time    Convergence         Total energy    Change
  ------------------------------------------------------------------------------
     1 OT DIIS     0.80E-01    2.1     0.00055276      -114.0248496755 -1.14E+02
     2 OT DIIS     0.80E-01    2.6     0.00029444      -114.0249486678 -9.90E-05
     3 OT DIIS     0.80E-01    2.6     0.00015938      -114.0249709268 -2.23E-05
     4 OT DIIS     0.80E-01    2.6     0.00006344      -114.0249818499 -1.09E-05
     5 OT DIIS     0.80E-01    2.6     0.00003615      -114.0249840726 -2.22E-06
     6 OT DIIS     0.80E-01    2.7     0.00002127      -114.0249846283 -5.56E-07
     7 OT DIIS     0.80E-01    2.6     0.00001011      -114.0249848703 -2.42E-07
     8 OT DIIS     0.80E-01    2.6     0.00000496      -114.0249849102 -3.99E-08
     9 OT DIIS     0.80E-01    2.6     0.00000271      -114.0249849232 -1.30E-08
    10 OT DIIS     0.80E-01    2.6     0.00000167      -114.0249849271 -3.91E-09
    11 OT DIIS     0.80E-01    2.6     0.00000090      -114.0249849282 -1.17E-09

  *** SCF run converged in    11 steps ***


  Electronic density on regular grids:        -70.0000000054       -0.0000000054
  Core density on regular grids:               69.9999999956       -0.0000000044
  Total charge density on r-space grids:       -0.0000000098
  Total charge density g-space grids:          -0.0000000098

  Overlap energy of the core charge distribution:               0.00000396929402
  Self energy of the core charge distribution:               -278.09582761455005
  Core Hamiltonian energy:                                     84.41585029216719
  Hartree energy:                                             112.49718134974239
  Exchange-correlation energy:                                -31.88909757659277
  QM/MM Electrostatic energy:                                  -0.95309534829897

  Total energy:                                              -114.02498492823818

  outer SCF iter =    1 RMS gradient =   0.90E-06 energy =       -114.0249849282
  outer SCF loop converged in   1 iterations or   11 steps


 ENERGY| Total FORCE_EVAL ( QMMM ) energy (a.u.):          -1576.733582664739970


 *******************************************************************************
 ENSEMBLE TYPE                =                                              NVT
 STEP NUMBER                  =                                                5
 TIME [fs]                    =                                         5.000000
 CONSERVED QUANTITY [hartree] =                              -0.115409103048E+04

                                              INSTANTANEOUS             AVERAGES
 CPU TIME [s]                 =                      101.53               140.25
 ENERGY DRIFT PER ATOM [K]    =          0.284835376020E-01   0.143765853094E-02
 POTENTIAL ENERGY[hartree]    =         -0.157673358266E+04  -0.157686941060E+04
 TOTAL KINETIC ENERGY[hartree]=          0.422594093644E+03   0.422738788018E+03
 QM KINETIC ENERGY[hartree]   =          0.621592315095E-01   0.548032238195E-01
 TOTAL TEMPERATURE[K]         =                     298.926              299.028
 QM TEMPERATURE[K]            =                     594.797              524.408
 *******************************************************************************


  Translating the system in order to center the QM fragment in the QM box.

 Number of electrons:                                                         70
 Number of occupied orbitals:                                                 35
 Number of molecular orbitals:                                                35

 Number of orbital functions:                                                222
 Number of independent orbital functions:                                    222

 Extrapolation method: ASPC


 SCF WAVEFUNCTION OPTIMIZATION

  ----------------------------------- OT ---------------------------------------
  Minimizer      : DIIS                : direct inversion
                                         in the iterative subspace
                                         using   7 DIIS vectors
                                         safer DIIS on
  Preconditioner : FULL_SINGLE_INVERSE : inversion of 
                                         H + eS - 2*(Sc)(c^T*H*c+const)(Sc)^T
  Precond_solver : DEFAULT
  stepsize       :    0.08000000                  energy_gap     :    0.08000000
  eps_taylor     :   0.10000E-15                  max_taylor     :             4
  ----------------------------------- OT ---------------------------------------

  Step     Update method      Time    Convergence         Total energy    Change
  ------------------------------------------------------------------------------
     1 OT DIIS     0.80E-01    2.1     0.00042935      -114.0427701870 -1.14E+02
     2 OT DIIS     0.80E-01    2.6     0.00021348      -114.0428364047 -6.62E-05
     3 OT DIIS     0.80E-01    2.6     0.00012894      -114.0428514884 -1.51E-05
     4 OT DIIS     0.80E-01    2.6     0.00005731      -114.0428593143 -7.83E-06
     5 OT DIIS     0.80E-01    2.6     0.00002890      -114.0428611278 -1.81E-06
     6 OT DIIS     0.80E-01    2.6     0.00001823      -114.0428615513 -4.24E-07
     7 OT DIIS     0.80E-01    2.6     0.00000765      -114.0428616958 -1.45E-07
     8 OT DIIS     0.80E-01    2.6     0.00000402      -114.0428617252 -2.94E-08
     9 OT DIIS     0.80E-01    2.6     0.00000232      -114.0428617324 -7.19E-09
    10 OT DIIS     0.80E-01    2.6     0.00000128      -114.0428617355 -3.11E-09
    11 OT DIIS     0.80E-01    2.6     0.00000077      -114.0428617363 -7.66E-10

  *** SCF run converged in    11 steps ***


  Electronic density on regular grids:        -70.0000000052       -0.0000000052
  Core density on regular grids:               69.9999999956       -0.0000000044
  Total charge density on r-space grids:       -0.0000000096
  Total charge density g-space grids:          -0.0000000096

  Overlap energy of the core charge distribution:               0.00000444255525
  Self energy of the core charge distribution:               -278.09582761455005
  Core Hamiltonian energy:                                     84.41734233931973
  Hartree energy:                                             112.49727733490933
  Exchange-correlation energy:                                -31.89309390470368
  QM/MM Electrostatic energy:                                  -0.96856433382079

  Total energy:                                              -114.04286173629019

  outer SCF iter =    1 RMS gradient =   0.77E-06 energy =       -114.0428617363
  outer SCF loop converged in   1 iterations or   11 steps


 ENERGY| Total FORCE_EVAL ( QMMM ) energy (a.u.):          -1576.469739999069134


 *******************************************************************************
 ENSEMBLE TYPE                =                                              NVT
 STEP NUMBER                  =                                                6
 TIME [fs]                    =                                         6.000000
 CONSERVED QUANTITY [hartree] =                              -0.115406972706E+04

                                              INSTANTANEOUS             AVERAGES
 CPU TIME [s]                 =                      100.91               133.69
 ENERGY DRIFT PER ATOM [K]    =          0.510872107726E-01   0.971258390455E-02
 POTENTIAL ENERGY[hartree]    =         -0.157646974000E+04  -0.157680279883E+04
 TOTAL KINETIC ENERGY[hartree]=          0.422341048154E+03   0.422672498041E+03
 QM KINETIC ENERGY[hartree]   =          0.649804005026E-01   0.564994199334E-01
 TOTAL TEMPERATURE[K]         =                     298.747              298.981
 QM TEMPERATURE[K]            =                     621.793              540.639
 *******************************************************************************


  Translating the system in order to center the QM fragment in the QM box.

 Number of electrons:                                                         70
 Number of occupied orbitals:                                                 35
 Number of molecular orbitals:                                                35

 Number of orbital functions:                                                222
 Number of independent orbital functions:                                    222

 Extrapolation method: ASPC


 SCF WAVEFUNCTION OPTIMIZATION

  ----------------------------------- OT ---------------------------------------
  Minimizer      : DIIS                : direct inversion
                                         in the iterative subspace
                                         using   7 DIIS vectors
                                         safer DIIS on
  Preconditioner : FULL_SINGLE_INVERSE : inversion of 
                                         H + eS - 2*(Sc)(c^T*H*c+const)(Sc)^T
  Precond_solver : DEFAULT
  stepsize       :    0.08000000                  energy_gap     :    0.08000000
  eps_taylor     :   0.10000E-15                  max_taylor     :             4
  ----------------------------------- OT ---------------------------------------

  Step     Update method      Time    Convergence         Total energy    Change
  ------------------------------------------------------------------------------
     1 OT DIIS     0.80E-01    2.1     0.00040720      -114.0426550432 -1.14E+02
     2 OT DIIS     0.80E-01    2.6     0.00020811      -114.0427123546 -5.73E-05
     3 OT DIIS     0.80E-01    2.6     0.00012124      -114.0427261117 -1.38E-05
     4 OT DIIS     0.80E-01    2.6     0.00005566      -114.0427337680 -7.66E-06
     5 OT DIIS     0.80E-01    2.6     0.00002831      -114.0427355515 -1.78E-06
     6 OT DIIS     0.80E-01    2.6     0.00001416      -114.0427359355 -3.84E-07
     7 OT DIIS     0.80E-01    2.6     0.00000672      -114.0427360278 -9.24E-08
     8 OT DIIS     0.80E-01    2.6     0.00000321      -114.0427360464 -1.85E-08
     9 OT DIIS     0.80E-01    2.6     0.00000187      -114.0427360506 -4.24E-09
    10 OT DIIS     0.80E-01    2.6     0.00000112      -114.0427360525 -1.88E-09
    11 OT DIIS     0.80E-01    2.6     0.00000063      -114.0427360531 -6.52E-10

  *** SCF run converged in    11 steps ***


  Electronic density on regular grids:        -70.0000000070       -0.0000000070
  Core density on regular grids:               69.9999999957       -0.0000000043
  Total charge density on r-space grids:       -0.0000000114
  Total charge density g-space grids:          -0.0000000114

  Overlap energy of the core charge distribution:               0.00000518839454
  Self energy of the core charge distribution:               -278.09582761455005
  Core Hamiltonian energy:                                     84.44500562958248
  Hartree energy:                                             112.48125827188353
  Exchange-correlation energy:                                -31.90437060384988
  QM/MM Electrostatic energy:                                  -0.96880692459746

  Total energy:                                              -114.04273605313684

  outer SCF iter =    1 RMS gradient =   0.63E-06 energy =       -114.0427360531
  outer SCF loop converged in   1 iterations or   11 steps


 ENERGY| Total FORCE_EVAL ( QMMM ) energy (a.u.):          -1576.711120557391496


 *******************************************************************************
 ENSEMBLE TYPE                =                                              NVT
 STEP NUMBER                  =                                                7
 TIME [fs]                    =                                         7.000000
 CONSERVED QUANTITY [hartree] =                              -0.115407738008E+04

                                              INSTANTANEOUS             AVERAGES
 CPU TIME [s]                 =                      100.23               128.91
 ENERGY DRIFT PER ATOM [K]    =          0.429670888938E-01   0.144632274744E-01
 POTENTIAL ENERGY[hartree]    =         -0.157671112056E+04  -0.157678970194E+04
 TOTAL KINETIC ENERGY[hartree]=          0.422564047282E+03   0.422657005075E+03
 QM KINETIC ENERGY[hartree]   =          0.654561144282E-01   0.577789477184E-01
 TOTAL TEMPERATURE[K]         =                     298.905              298.970
 QM TEMPERATURE[K]            =                     626.345              552.883
 *******************************************************************************


  Translating the system in order to center the QM fragment in the QM box.

 Number of electrons:                                                         70
 Number of occupied orbitals:                                                 35
 Number of molecular orbitals:                                                35

 Number of orbital functions:                                                222
 Number of independent orbital functions:                                    222

 Extrapolation method: ASPC


 SCF WAVEFUNCTION OPTIMIZATION

  ----------------------------------- OT ---------------------------------------
  Minimizer      : DIIS                : direct inversion
                                         in the iterative subspace
                                         using   7 DIIS vectors
                                         safer DIIS on
  Preconditioner : FULL_SINGLE_INVERSE : inversion of 
                                         H + eS - 2*(Sc)(c^T*H*c+const)(Sc)^T
  Precond_solver : DEFAULT
  stepsize       :    0.08000000                  energy_gap     :    0.08000000
  eps_taylor     :   0.10000E-15                  max_taylor     :             4
  ----------------------------------- OT ---------------------------------------

  Step     Update method      Time    Convergence         Total energy    Change
  ------------------------------------------------------------------------------
     1 OT DIIS     0.80E-01    2.1     0.00036287      -113.9996104383 -1.14E+02
     2 OT DIIS     0.80E-01    2.6     0.00018361      -113.9996583492 -4.79E-05
     3 OT DIIS     0.80E-01    2.6     0.00010968      -113.9996700013 -1.17E-05
     4 OT DIIS     0.80E-01    2.6     0.00004996      -113.9996761722 -6.17E-06
     5 OT DIIS     0.80E-01    2.6     0.00002726      -113.9996773818 -1.21E-06
     6 OT DIIS     0.80E-01    2.6     0.00001328      -113.9996776974 -3.16E-07
     7 OT DIIS     0.80E-01    2.6     0.00000634      -113.9996777932 -9.58E-08
     8 OT DIIS     0.80E-01    2.6     0.00000315      -113.9996778131 -1.99E-08
     9 OT DIIS     0.80E-01    2.6     0.00000187      -113.9996778180 -4.85E-09
    10 OT DIIS     0.80E-01    2.6     0.00000108      -113.9996778196 -1.56E-09
    11 OT DIIS     0.80E-01    2.6     0.00000058      -113.9996778203 -7.06E-10

  *** SCF run converged in    11 steps ***


  Electronic density on regular grids:        -70.0000000020       -0.0000000020
  Core density on regular grids:               69.9999999956       -0.0000000044
  Total charge density on r-space grids:       -0.0000000064
  Total charge density g-space grids:          -0.0000000064

  Overlap energy of the core charge distribution:               0.00000633547074
  Self energy of the core charge distribution:               -278.09582761455005
  Core Hamiltonian energy:                                     84.49623607648030
  Hartree energy:                                             112.45097886359078
  Exchange-correlation energy:                                -31.92158303385053
  QM/MM Electrostatic energy:                                  -0.92948844740082

  Total energy:                                              -113.99967782025956

  outer SCF iter =    1 RMS gradient =   0.58E-06 energy =       -113.9996778203
  outer SCF loop converged in   1 iterations or   11 steps


 ENERGY| Total FORCE_EVAL ( QMMM ) energy (a.u.):          -1577.260304408886213


 *******************************************************************************
 ENSEMBLE TYPE                =                                              NVT
 STEP NUMBER                  =                                                8
 TIME [fs]                    =                                         8.000000
 CONSERVED QUANTITY [hartree] =                              -0.115416608307E+04

                                              INSTANTANEOUS             AVERAGES
 CPU TIME [s]                 =                       99.86               125.28
 ENERGY DRIFT PER ATOM [K]    =         -0.511498898510E-01   0.626158780877E-02
 POTENTIAL ENERGY[hartree]    =         -0.157726030441E+04  -0.157684852724E+04
 TOTAL KINETIC ENERGY[hartree]=          0.423013530495E+03   0.422701570753E+03
 QM KINETIC ENERGY[hartree]   =          0.634028661963E-01   0.584819375281E-01
 TOTAL TEMPERATURE[K]         =                     299.222              299.002
 QM TEMPERATURE[K]            =                     606.698              559.609
 *******************************************************************************


  Translating the system in order to center the QM fragment in the QM box.

 Number of electrons:                                                         70
 Number of occupied orbitals:                                                 35
 Number of molecular orbitals:                                                35

 Number of orbital functions:                                                222
 Number of independent orbital functions:                                    222

 Extrapolation method: ASPC


 SCF WAVEFUNCTION OPTIMIZATION

  ----------------------------------- OT ---------------------------------------
  Minimizer      : DIIS                : direct inversion
                                         in the iterative subspace
                                         using   7 DIIS vectors
                                         safer DIIS on
  Preconditioner : FULL_SINGLE_INVERSE : inversion of 
                                         H + eS - 2*(Sc)(c^T*H*c+const)(Sc)^T
  Precond_solver : DEFAULT
  stepsize       :    0.08000000                  energy_gap     :    0.08000000
  eps_taylor     :   0.10000E-15                  max_taylor     :             4
  ----------------------------------- OT ---------------------------------------

  Step     Update method      Time    Convergence         Total energy    Change
  ------------------------------------------------------------------------------
     1 OT DIIS     0.80E-01    2.1     0.00040414      -113.9302339998 -1.14E+02
     2 OT DIIS     0.80E-01    2.6     0.00020830      -113.9302958287 -6.18E-05
     3 OT DIIS     0.80E-01    2.6     0.00012925      -113.9303114757 -1.56E-05
     4 OT DIIS     0.80E-01    2.7     0.00005680      -113.9303195671 -8.09E-06
     5 OT DIIS     0.80E-01    2.6     0.00002662      -113.9303210768 -1.51E-06
     6 OT DIIS     0.80E-01    2.6     0.00001414      -113.9303214201 -3.43E-07
     7 OT DIIS     0.80E-01    2.7     0.00000661      -113.9303215053 -8.51E-08
     8 OT DIIS     0.80E-01    2.6     0.00000262      -113.9303215223 -1.71E-08
     9 OT DIIS     0.80E-01    2.6     0.00000136      -113.9303215259 -3.55E-09
    10 OT DIIS     0.80E-01    2.6     0.00000078      -113.9303215268 -9.29E-10

  *** SCF run converged in    10 steps ***


  Electronic density on regular grids:        -70.0000000020       -0.0000000020
  Core density on regular grids:               69.9999999957       -0.0000000043
  Total charge density on r-space grids:       -0.0000000063
  Total charge density g-space grids:          -0.0000000063

  Overlap energy of the core charge distribution:               0.00000760543019
  Self energy of the core charge distribution:               -278.09582761455005
  Core Hamiltonian energy:                                     84.55686592730399
  Hartree energy:                                             112.41301205545123
  Exchange-correlation energy:                                -31.94066843834386
  QM/MM Electrostatic energy:                                  -0.86371106208873

  Total energy:                                              -113.93032152679720

  outer SCF iter =    1 RMS gradient =   0.78E-06 energy =       -113.9303215268
  outer SCF loop converged in   1 iterations or   10 steps


 ENERGY| Total FORCE_EVAL ( QMMM ) energy (a.u.):          -1577.044543881637082


 *******************************************************************************
 ENSEMBLE TYPE                =                                              NVT
 STEP NUMBER                  =                                                9
 TIME [fs]                    =                                         9.000000
 CONSERVED QUANTITY [hartree] =                              -0.115409867021E+04

                                              INSTANTANEOUS             AVERAGES
 CPU TIME [s]                 =                       97.47               122.19
 ENERGY DRIFT PER ATOM [K]    =          0.203775171198E-01   0.783002439888E-02
 POTENTIAL ENERGY[hartree]    =         -0.157704454388E+04  -0.157687030687E+04
 TOTAL KINETIC ENERGY[hartree]=          0.422853852034E+03   0.422718490895E+03
 QM KINETIC ENERGY[hartree]   =          0.611990495909E-01   0.587838388684E-01
 TOTAL TEMPERATURE[K]         =                     299.110              299.014
 QM TEMPERATURE[K]            =                     585.609              562.498
 *******************************************************************************


  Translating the system in order to center the QM fragment in the QM box.

 Number of electrons:                                                         70
 Number of occupied orbitals:                                                 35
 Number of molecular orbitals:                                                35

 Number of orbital functions:                                                222
 Number of independent orbital functions:                                    222

 Extrapolation method: ASPC


 SCF WAVEFUNCTION OPTIMIZATION

  ----------------------------------- OT ---------------------------------------
  Minimizer      : DIIS                : direct inversion
                                         in the iterative subspace
                                         using   7 DIIS vectors
                                         safer DIIS on
  Preconditioner : FULL_SINGLE_INVERSE : inversion of 
                                         H + eS - 2*(Sc)(c^T*H*c+const)(Sc)^T
  Precond_solver : DEFAULT
  stepsize       :    0.08000000                  energy_gap     :    0.08000000
  eps_taylor     :   0.10000E-15                  max_taylor     :             4
  ----------------------------------- OT ---------------------------------------

  Step     Update method      Time    Convergence         Total energy    Change
  ------------------------------------------------------------------------------
     1 OT DIIS     0.80E-01    2.1     0.00037780      -113.8468089903 -1.14E+02
     2 OT DIIS     0.80E-01    2.6     0.00019751      -113.8468642639 -5.53E-05
     3 OT DIIS     0.80E-01    2.6     0.00012294      -113.8468791856 -1.49E-05
     4 OT DIIS     0.80E-01    2.6     0.00005260      -113.8468870628 -7.88E-06
     5 OT DIIS     0.80E-01    2.6     0.00002454      -113.8468883876 -1.32E-06
     6 OT DIIS     0.80E-01    2.7     0.00001238      -113.8468886831 -2.96E-07
     7 OT DIIS     0.80E-01    2.6     0.00000585      -113.8468887538 -7.06E-08
     8 OT DIIS     0.80E-01    2.6     0.00000250      -113.8468887690 -1.52E-08
     9 OT DIIS     0.80E-01    2.6     0.00000127      -113.8468887722 -3.29E-09
    10 OT DIIS     0.80E-01    2.6     0.00000063      -113.8468887732 -9.40E-10

  *** SCF run converged in    10 steps ***


  Electronic density on regular grids:        -70.0000000027       -0.0000000027
  Core density on regular grids:               69.9999999957       -0.0000000043
  Total charge density on r-space grids:       -0.0000000070
  Total charge density g-space grids:          -0.0000000070

  Overlap energy of the core charge distribution:               0.00000823505347
  Self energy of the core charge distribution:               -278.09582761455005
  Core Hamiltonian energy:                                     84.59961725991232
  Hartree energy:                                             112.38317553039516
  Exchange-correlation energy:                                -31.95351947904514
  QM/MM Electrostatic energy:                                  -0.78034270494269

  Total energy:                                              -113.84688877317690

  outer SCF iter =    1 RMS gradient =   0.63E-06 energy =       -113.8468887732
  outer SCF loop converged in   1 iterations or   10 steps


 ENERGY| Total FORCE_EVAL ( QMMM ) energy (a.u.):          -1576.894588494588561


 *******************************************************************************
 ENSEMBLE TYPE                =                                              NVT
 STEP NUMBER                  =                                               10
 TIME [fs]                    =                                        10.000000
 CONSERVED QUANTITY [hartree] =                              -0.115406578733E+04

                                              INSTANTANEOUS             AVERAGES
 CPU TIME [s]                 =                       97.29               119.70
 ENERGY DRIFT PER ATOM [K]    =          0.552674045233E-01   0.125737624113E-01
 POTENTIAL ENERGY[hartree]    =         -0.157689458849E+04  -0.157687273503E+04
 TOTAL KINETIC ENERGY[hartree]=          0.422725140032E+03   0.422719155809E+03
 QM KINETIC ENERGY[hartree]   =          0.619441629934E-01   0.590998712809E-01
 TOTAL TEMPERATURE[K]         =                     299.018              299.014
 QM TEMPERATURE[K]            =                     592.739              565.522
 *******************************************************************************


  Translating the system in order to center the QM fragment in the QM box.

 Number of electrons:                                                         70
 Number of occupied orbitals:                                                 35
 Number of molecular orbitals:                                                35

 Number of orbital functions:                                                222
 Number of independent orbital functions:                                    222

 Extrapolation method: ASPC


 SCF WAVEFUNCTION OPTIMIZATION

  ----------------------------------- OT ---------------------------------------
  Minimizer      : DIIS                : direct inversion
                                         in the iterative subspace
                                         using   7 DIIS vectors
                                         safer DIIS on
  Preconditioner : FULL_SINGLE_INVERSE : inversion of 
                                         H + eS - 2*(Sc)(c^T*H*c+const)(Sc)^T
  Precond_solver : DEFAULT
  stepsize       :    0.08000000                  energy_gap     :    0.08000000
  eps_taylor     :   0.10000E-15                  max_taylor     :             4
  ----------------------------------- OT ---------------------------------------

  Step     Update method      Time    Convergence         Total energy    Change
  ------------------------------------------------------------------------------
     1 OT DIIS     0.80E-01    2.1     0.00050618      -113.7831461004 -1.14E+02
     2 OT DIIS     0.80E-01    2.6     0.00024028      -113.7832387642 -9.27E-05
     3 OT DIIS     0.80E-01    2.6     0.00014394      -113.7832597177 -2.10E-05
     4 OT DIIS     0.80E-01    2.6     0.00007454      -113.7832700669 -1.03E-05
     5 OT DIIS     0.80E-01    2.6     0.00003321      -113.7832726103 -2.54E-06
     6 OT DIIS     0.80E-01    2.6     0.00001652      -113.7832732965 -6.86E-07
     7 OT DIIS     0.80E-01    2.6     0.00000921      -113.7832734020 -1.05E-07
     8 OT DIIS     0.80E-01    2.6     0.00000454      -113.7832734433 -4.13E-08
     9 OT DIIS     0.80E-01    2.6     0.00000252      -113.7832734548 -1.14E-08
    10 OT DIIS     0.80E-01    2.6     0.00000135      -113.7832734591 -4.31E-09
    11 OT DIIS     0.80E-01    2.6     0.00000081      -113.7832734601 -1.03E-09

  *** SCF run converged in    11 steps ***


  Electronic density on regular grids:        -69.9999999991        0.0000000009
  Core density on regular grids:               69.9999999957       -0.0000000043
  Total charge density on r-space grids:       -0.0000000035
  Total charge density g-space grids:          -0.0000000035

  Overlap energy of the core charge distribution:               0.00000792343893
  Self energy of the core charge distribution:               -278.09582761455005
  Core Hamiltonian energy:                                     84.60141761703275
  Hartree energy:                                             112.37845795482194
  Exchange-correlation energy:                                -31.95344288470178
  QM/MM Electrostatic energy:                                  -0.71388645616222

  Total energy:                                              -113.78327346012040

  outer SCF iter =    1 RMS gradient =   0.81E-06 energy =       -113.7832734601
  outer SCF loop converged in   1 iterations or   11 steps


 ENERGY| Total FORCE_EVAL ( QMMM ) energy (a.u.):          -1577.236822642769766


 *******************************************************************************
 ENSEMBLE TYPE                =                                              NVT
 STEP NUMBER                  =                                               11
 TIME [fs]                    =                                        11.000000
 CONSERVED QUANTITY [hartree] =                              -0.115413268429E+04

                                              INSTANTANEOUS             AVERAGES
 CPU TIME [s]                 =                      101.48               118.05
 ENERGY DRIFT PER ATOM [K]    =         -0.157126193940E-01   0.100022731563E-01
 POTENTIAL ENERGY[hartree]    =         -0.157723682264E+04  -0.157690583391E+04
 TOTAL KINETIC ENERGY[hartree]=          0.422988540896E+03   0.422743645362E+03
 QM KINETIC ENERGY[hartree]   =          0.663584497253E-01   0.597597420486E-01
 TOTAL TEMPERATURE[K]         =                     299.205              299.032
 QM TEMPERATURE[K]            =                     634.979              571.837
 *******************************************************************************


  Translating the system in order to center the QM fragment in the QM box.

 Number of electrons:                                                         70
 Number of occupied orbitals:                                                 35
 Number of molecular orbitals:                                                35

 Number of orbital functions:                                                222
 Number of independent orbital functions:                                    222

 Extrapolation method: ASPC


 SCF WAVEFUNCTION OPTIMIZATION

  ----------------------------------- OT ---------------------------------------
  Minimizer      : DIIS                : direct inversion
                                         in the iterative subspace
                                         using   7 DIIS vectors
                                         safer DIIS on
  Preconditioner : FULL_SINGLE_INVERSE : inversion of 
                                         H + eS - 2*(Sc)(c^T*H*c+const)(Sc)^T
  Precond_solver : DEFAULT
  stepsize       :    0.08000000                  energy_gap     :    0.08000000
  eps_taylor     :   0.10000E-15                  max_taylor     :             4
  ----------------------------------- OT ---------------------------------------

  Step     Update method      Time    Convergence         Total energy    Change
  ------------------------------------------------------------------------------
     1 OT DIIS     0.80E-01    2.1     0.00045974      -113.7511809559 -1.14E+02
     2 OT DIIS     0.80E-01    2.6     0.00022136      -113.7512669892 -8.60E-05
     3 OT DIIS     0.80E-01    2.6     0.00012303      -113.7512900267 -2.30E-05
     4 OT DIIS     0.80E-01    2.6     0.00005089      -113.7512984087 -8.38E-06
     5 OT DIIS     0.80E-01    2.6     0.00003006      -113.7512997239 -1.32E-06
     6 OT DIIS     0.80E-01    2.6     0.00001206      -113.7513001127 -3.89E-07
     7 OT DIIS     0.80E-01    2.6     0.00000520      -113.7513001913 -7.86E-08
     8 OT DIIS     0.80E-01    2.6     0.00000276      -113.7513002094 -1.81E-08
     9 OT DIIS     0.80E-01    2.6     0.00000165      -113.7513002139 -4.43E-09
    10 OT DIIS     0.80E-01    2.6     0.00000090      -113.7513002151 -1.23E-09

  *** SCF run converged in    10 steps ***


  Electronic density on regular grids:        -69.9999999986        0.0000000014
  Core density on regular grids:               69.9999999956       -0.0000000044
  Total charge density on r-space grids:       -0.0000000030
  Total charge density g-space grids:          -0.0000000030

  Overlap energy of the core charge distribution:               0.00000687203389
  Self energy of the core charge distribution:               -278.09582761455005
  Core Hamiltonian energy:                                     84.56480192304839
  Hartree energy:                                             112.39827980632418
  Exchange-correlation energy:                                -31.94209447114716
  QM/MM Electrostatic energy:                                  -0.67646673080829

  Total energy:                                              -113.75130021509902

  outer SCF iter =    1 RMS gradient =   0.90E-06 energy =       -113.7513002151
  outer SCF loop converged in   1 iterations or   10 steps


 ENERGY| Total FORCE_EVAL ( QMMM ) energy (a.u.):          -1577.252867240627893


 *******************************************************************************
 ENSEMBLE TYPE                =                                              NVT
 STEP NUMBER                  =                                               12
 TIME [fs]                    =                                        12.000000
 CONSERVED QUANTITY [hartree] =                              -0.115410726075E+04

                                              INSTANTANEOUS             AVERAGES
 CPU TIME [s]                 =                       97.14               116.30
 ENERGY DRIFT PER ATOM [K]    =          0.112626496943E-01   0.101073045345E-01
 POTENTIAL ENERGY[hartree]    =         -0.157725286724E+04  -0.157693475335E+04
 TOTAL KINETIC ENERGY[hartree]=          0.423017737447E+03   0.422766486369E+03
 QM KINETIC ENERGY[hartree]   =          0.723079585468E-01   0.608054267568E-01
 TOTAL TEMPERATURE[K]         =                     299.225              299.048
[...]
  Exchange-correlation energy:                                -31.84319674617970
  QM/MM Electrostatic energy:                                  -0.09058287666347

  Total energy:                                              -113.16114405871983

  outer SCF iter =    1 RMS gradient =   0.79E-06 energy =       -113.1611440587
  outer SCF loop converged in   1 iterations or   10 steps


 ENERGY| Total FORCE_EVAL ( QMMM ) energy (a.u.):          -1577.428915297994990


 *******************************************************************************
 ENSEMBLE TYPE                =                                              NVT
 STEP NUMBER                  =                                               40
 TIME [fs]                    =                                        40.000000
 CONSERVED QUANTITY [hartree] =                              -0.115413802755E+04

                                              INSTANTANEOUS             AVERAGES
 CPU TIME [s]                 =                       95.37               103.55
 ENERGY DRIFT PER ATOM [K]    =         -0.213819976673E-01   0.109650259519E-01
 POTENTIAL ENERGY[hartree]    =         -0.157742891530E+04  -0.157715360616E+04
 TOTAL KINETIC ENERGY[hartree]=          0.422708163094E+03   0.422785610127E+03
 QM KINETIC ENERGY[hartree]   =          0.625560404881E-01   0.612736235306E-01
 TOTAL TEMPERATURE[K]         =                     299.006              299.061
 QM TEMPERATURE[K]            =                     598.594              586.323
 *******************************************************************************


 -------------------------------------------------------------------------------
 -                                                                             -
 -                                DBCSR STATISTICS                             -
 -                                                                             -
 -------------------------------------------------------------------------------
 COUNTER                                    TOTAL       BLAS       SMM       ACC
 flops     3 x     3 x     3               149580       0.0%    100.0%      0.0%
 flops     5 x     3 x     3               266670       0.0%    100.0%      0.0%
 flops    13 x     3 x     3               275184       0.0%    100.0%      0.0%
 flops    15 x     3 x     3               618570       0.0%    100.0%      0.0%
 flops     3 x     3 x     5              1368000       0.0%    100.0%      0.0%
 flops    13 x    32 x     3              1467648       0.0%    100.0%      0.0%
 flops    13 x     3 x    32              1467648       0.0%    100.0%      0.0%
 flops     3 x     3 x    32              1595520       0.0%    100.0%      0.0%
 flops     3 x    32 x     3              1595520       0.0%    100.0%      0.0%
 flops    32 x     3 x     3              1595520       0.0%    100.0%      0.0%
 flops    15 x     3 x     5              1861200       0.0%    100.0%      0.0%
 flops     5 x     3 x    32              2521920       0.0%    100.0%      0.0%
 flops     5 x    32 x     3              2521920       0.0%    100.0%      0.0%
 flops    39 x     3 x     3              3216564       0.0%    100.0%      0.0%
 flops     5 x     5 x     3              3234600       0.0%    100.0%      0.0%
 flops    31 x     3 x     3              5113512       0.0%    100.0%      0.0%
 flops     3 x     3 x    13              6224400       0.0%    100.0%      0.0%
 flops    15 x     3 x    32              6598080       0.0%    100.0%      0.0%
 flops    15 x    32 x     3              6598080       0.0%    100.0%      0.0%
 flops    15 x     3 x    13              8468460       0.0%    100.0%      0.0%
 flops    39 x     3 x     5              9678240       0.0%    100.0%      0.0%
 flops     5 x    13 x     3             13082160       0.0%    100.0%      0.0%
 flops    13 x     5 x     3             13082160       0.0%    100.0%      0.0%
 flops     5 x     3 x     5             13206000       0.0%    100.0%      0.0%
 flops    32 x     3 x     5             14269440       0.0%    100.0%      0.0%
 flops     3 x    32 x     5             14592000       0.0%    100.0%      0.0%
 flops    31 x     3 x     5             15385920       0.0%    100.0%      0.0%
 flops    32 x    32 x     3             17018880       0.0%    100.0%      0.0%
 flops     3 x    32 x    32             17018880       0.0%    100.0%      0.0%
 flops    32 x     3 x    32             17018880       0.0%    100.0%      0.0%
 flops    15 x    32 x     5             19852800       0.0%    100.0%      0.0%
 flops     5 x    32 x    32             30341120       0.0%    100.0%      0.0%
 flops    13 x    32 x    32             31309824       0.0%    100.0%      0.0%
 flops    39 x     3 x    32             34310016       0.0%    100.0%      0.0%
 flops    39 x    32 x     3             34310016       0.0%    100.0%      0.0%
 flops     5 x     5 x    32             34502400       0.0%    100.0%      0.0%
 flops    39 x     3 x    13             44035992       0.0%    100.0%      0.0%
 flops    31 x    32 x     3             54544128       0.0%    100.0%      0.0%
 flops    31 x     3 x    32             54544128       0.0%    100.0%      0.0%
 flops    13 x     3 x     5             57264480       0.0%    100.0%      0.0%
 flops     5 x     3 x    13             60087300       0.0%    100.0%      0.0%
 flops    13 x    13 x     3             63775530       0.0%    100.0%      0.0%
 flops    32 x     3 x    13             64925952       0.0%    100.0%      0.0%
 flops     3 x    32 x    13             66393600       0.0%    100.0%      0.0%
 flops    31 x     3 x    13             70005936       0.0%    100.0%      0.0%
 flops    15 x    32 x    32             70379520       0.0%    100.0%      0.0%
 flops    15 x    32 x    13             90330240       0.0%    100.0%      0.0%
 flops    39 x    32 x     5            103234560       0.0%    100.0%      0.0%
 flops     5 x    13 x    32            139543040       0.0%    100.0%      0.0%
 flops    13 x     5 x    32            139543040       0.0%    100.0%      0.0%
 flops     5 x    32 x     5            140864000       0.0%    100.0%      0.0%
 flops    32 x    32 x     5            155648000       0.0%    100.0%      0.0%
 flops    31 x    32 x     5            164116480       0.0%    100.0%      0.0%
 flops    32 x    32 x    32            181534720       0.0%    100.0%      0.0%
 flops    13 x     3 x    13            260553384       0.0%    100.0%      0.0%
 flops    39 x    32 x    32            365973504       0.0%    100.0%      0.0%
 flops    39 x    32 x    13            469717248       0.0%    100.0%      0.0%
 flops    31 x    32 x    32            581804032       0.0%    100.0%      0.0%
 flops    13 x    32 x     5            610821120       0.0%    100.0%      0.0%
 flops     5 x    32 x    13            640931200       0.0%    100.0%      0.0%
 flops    13 x    13 x    32            680272320       0.0%    100.0%      0.0%
 flops    32 x    32 x    13            708198400       0.0%    100.0%      0.0%
 flops    31 x    32 x    13            746729984       0.0%    100.0%      0.0%
 flops    13 x    32 x    13           2779236096       0.0%    100.0%      0.0%
 flops inhomo. stacks                           0       0.0%      0.0%      0.0%
 flops total                         9.950745E+09       0.0%    100.0%      0.0%
 flops max/rank                      2.066493E+09       0.0%    100.0%      0.0%
 matmuls inhomo. stacks                         0       0.0%      0.0%      0.0%
 matmuls total                            2021418       0.0%    100.0%      0.0%
 number of processed stacks               1341426       0.0%    100.0%      0.0%
 average stack size                                     0.0       1.5       0.0
 marketing flops                    10.958127E+09
 -------------------------------------------------------------------------------
 # multiplications                           9514
 max memory usage/rank               2.455495E+09
 # max total images/rank                        3
 # max 3D layers                                1
 # MPI messages exchanged                50233920
 MPI messages size (bytes):
  total size                        15.073836E+09
  min size                           0.000000E+00
  max size                           9.984000E+03
  average size                     300.072845E+00
 MPI breakdown and total messages size (bytes):
             size <=      128            43563234                 70361280
       128 < size <=     8192             6605258              14348230072
      8192 < size <=    32768               65428                653233152
     32768 < size <=   131072                   0                        0
    131072 < size <=  4194304                   0                        0
   4194304 < size <= 16777216                   0                        0
  16777216 < size                               0                        0
 -------------------------------------------------------------------------------

 *** WARNING in dbcsr/mm/dbcsr_mm.F:268 :: Using a non-square number of ***
 *** MPI ranks might lead to poor performance.                          ***
 *** Used ranks: 96                                                     ***
 *** Suggested: 100 196                                                 ***

 -------------------------------------------------------------------------------

 MEMORY| Estimated peak process memory [MiB]                                2342

 -------------------------------------------------------------------------------
 -                                                                             -
 -                         MESSAGE PASSING PERFORMANCE                         -
 -                                                                             -
 -------------------------------------------------------------------------------

 ROUTINE             CALLS      AVE VOLUME [Bytes]
 MP_Group              480
 MP_Bcast            18102                5314973.
 MP_Allreduce        80836                 724239.
 MP_Sync                76
 MP_Alltoall         45474                7362200.
 MP_ISendRecv       196080                 104976.
 MP_Wait           1339737
 MP_comm_split          30
 MP_ISend          1162033                  29186.
 MP_IRecv          1159890                  29123.
 MP_Memory          875430
 -------------------------------------------------------------------------------


 -------------------------------------------------------------------------------
 -                                                                             -
 -                           R E F E R E N C E S                               -
 -                                                                             -
 -------------------------------------------------------------------------------
 
 CP2K version 6.1, the CP2K developers group (2018).
 CP2K is freely available from https://www.cp2k.org/ .

 Schuett, Ole; Messmer, Peter; Hutter, Juerg; VandeVondele, Joost. 
 Electronic Structure Calculations on Graphics Processing Units, John Wiley & Sons, Ltd, 173-190 (2016). 
 GPU-Accelerated Sparse Matrix-Matrix Multiplication for Linear Scaling Density Functional Theory.
 http://dx.doi.org/10.1002/9781118670712.ch8


 Borstnik, U; VandeVondele, J; Weber, V; Hutter, J. 
 PARALLEL COMPUTING, 40 (5-6), 47-58 (2014). 
 Sparse matrix multiplication: The distributed block-compressed sparse
 row library.
 http://dx.doi.org/10.1016/j.parco.2014.03.012


 Hutter, J; Iannuzzi, M; Schiffmann, F; VandeVondele, J. 
 WILEY INTERDISCIPLINARY REVIEWS-COMPUTATIONAL MOLECULAR SCIENCE, 4 (1), 15-25 (2014). 
 CP2K: atomistic simulations of condensed matter systems.
 http://dx.doi.org/10.1002/wcms.1159


 Laino, T; Mohamed, F; Laio, A; Parrinello, M. 
 JOURNAL OF CHEMICAL THEORY AND COMPUTATION, 1 (6), 1176-1184 (2005). 
 An efficient real space multigrid QM/MM electrostatic coupling.
 http://dx.doi.org/10.1021/ct050123f


 Krack, M. 
 THEORETICAL CHEMISTRY ACCOUNTS, 114 (1-3), 145-152 (2005). 
 Pseudopotentials for H to Kr optimized for gradient-corrected
 exchange-correlation functionals.
 http://dx.doi.org/10.1007/s00214-005-0655-y


 VandeVondele, J; Krack, M; Mohamed, F; Parrinello, M; Chassaing, T;
 Hutter, J. COMPUTER PHYSICS COMMUNICATIONS, 167 (2), 103-128 (2005). 
 QUICKSTEP: Fast and accurate density functional calculations using a
 mixed Gaussian and plane waves approach.
 http://dx.doi.org/10.1016/j.cpc.2004.12.014


 Frigo, M; Johnson, SG. 
 PROCEEDINGS OF THE IEEE, 93 (2), 216-231 (2005). 
 The design and implementation of FFTW3.
 http://dx.doi.org/10.1109/JPROC.2004.840301


 Kolafa, J. 
 JOURNAL OF COMPUTATIONAL CHEMISTRY, 25 (3), 335-342 (2004). 
 Time-reversible always stable predictor-corrector method for molecular dynamics of polarizable molecules.
 http://dx.doi.org/10.1002/jcc.10385


 VandeVondele, J; Hutter, J. 
 JOURNAL OF CHEMICAL PHYSICS, 118 (10), 4365-4369 (2003). 
 An efficient orbital transformation method for electronic structure
 calculations.
 http://dx.doi.org/10.1063/1.1543154


 Hartwigsen, C; Goedecker, S; Hutter, J. 
 PHYSICAL REVIEW B, 58 (7), 3641-3662 (1998). 
 Relativistic separable dual-space Gaussian pseudopotentials from H to Rn.
 http://dx.doi.org/10.1103/PhysRevB.58.3641


 Lippert, G; Hutter, J; Parrinello, M. 
 MOLECULAR PHYSICS, 92 (3), 477-487 (1997). 
 A hybrid Gaussian and plane wave density functional scheme.
 http://dx.doi.org/10.1080/002689797170220


 Goedecker, S; Teter, M; Hutter, J. 
 PHYSICAL REVIEW B, 54 (3), 1703-1710 (1996). 
 Separable dual-space Gaussian pseudopotentials.
 http://dx.doi.org/10.1103/PhysRevB.54.1703


 ESSMANN, U; PERERA, L; BERKOWITZ, ML; DARDEN, T; LEE, H; PEDERSEN, LG. 
 JOURNAL OF CHEMICAL PHYSICS, 103 (19), 8577-8593 (1995). 
 A SMOOTH PARTICLE MESH EWALD METHOD.
 http://dx.doi.org/10.1063/1.470117


 BECKE, AD. PHYSICAL REVIEW A, 38 (6), 3098-3100 (1988). 
 DENSITY-FUNCTIONAL EXCHANGE-ENERGY APPROXIMATION WITH CORRECT
 ASYMPTOTIC-BEHAVIOR.
 http://dx.doi.org/10.1103/PhysRevA.38.3098


 LEE, CT; YANG, WT; PARR, RG. 
 PHYSICAL REVIEW B, 37 (2), 785-789 (1988). 
 DEVELOPMENT OF THE COLLE-SALVETTI CORRELATION-ENERGY FORMULA INTO A
 FUNCTIONAL OF THE ELECTRON-DENSITY.
 http://dx.doi.org/10.1103/PhysRevB.37.785


 NOSE, S. JOURNAL OF CHEMICAL PHYSICS, 81 (1), 511-519 (1984). 
 A UNIFIED FORMULATION OF THE CONSTANT TEMPERATURE MOLECULAR-DYNAMICS
 METHODS.
 http://dx.doi.org/10.1063/1.447334


 NOSE, S. MOLECULAR PHYSICS, 52 (2), 255-268 (1984). 
 A MOLECULAR-DYNAMICS METHOD FOR SIMULATIONS IN THE CANONICAL ENSEMBLE.
 http://dx.doi.org/10.1080/00268978400101201


 -------------------------------------------------------------------------------
 -                                                                             -
 -                                T I M I N G                                  -
 -                                                                             -
 -------------------------------------------------------------------------------
 SUBROUTINE                       CALLS  ASD         SELF TIME        TOTAL TIME
                                MAXIMUM       AVERAGE  MAXIMUM  AVERAGE  MAXIMUM
 CP2K                                 1  1.0    1.100    1.216 4257.026 4257.172
 qs_mol_dyn_low                       1  2.0    0.033    0.035 4144.268 4149.537
 velocity_verlet                     40  3.0    1.001    1.012 3960.351 3960.524
 qmmm_forces                         41  4.0    1.100    1.135 1392.590 1392.645
 qmmm_forces_with_gaussian           41  5.0    0.669    0.824 1366.143 1382.347
 qs_forces                           41  4.0    0.005    0.005 1368.070 1368.124
 qmmm_el_coupling                    41  4.0    0.002    0.002 1329.422 1342.034
 qmmm_elec_with_gaussian             41  5.0    0.307    0.432 1329.275 1341.868
 qs_energies                         41  5.0    0.002    0.002 1280.450 1280.502
 scf_env_do_scf                      41  6.0    0.002    0.007 1243.805 1243.848
 scf_env_do_scf_inner_loop          475  6.9    0.014    0.036 1156.453 1156.493
 rebuild_ks_matrix                  516  8.7    0.001    0.002 1051.246 1051.374
 qs_ks_build_kohn_sham_matrix       516  9.7    0.091    0.103 1051.245 1051.372
 pw_transfer                      10255 12.1    0.833    1.170  999.702 1007.812
 fft_wrap_pw1pw2                   9018 13.3    0.131    0.166  988.591  996.477
 fft_wrap_pw1pw2_150               5758 14.5   74.850   81.140  963.895  968.128
 qs_ks_update_qs_env                517  7.9    0.004    0.005  963.862  963.980
 pw_restrict_s3                     123  6.0  643.792  664.311  821.928  838.790
 fft3d_ps                          9018 15.3  382.491  393.169  767.740  777.092
 qs_vxc_create                      516 10.7    0.016    0.018  722.418  722.742
 xc_vxc_pw_create                   516 11.7   11.111   13.746  722.403  722.725
 qmmm_elec_with_gaussian:spline      41  6.0    0.000    0.000  702.721  715.442
 pw_prolongate_s3                   123  7.0  544.754  560.911  702.720  715.442
 qmmm_elec_with_gaussian_low         41  6.0    0.000    0.000  532.406  532.707
 qmmm_elec_gaussian_low_R            41  7.0    0.000    0.000  526.353  526.530
 qmmm_elec_with_gaussian_LR          41  8.0  526.353  526.530  526.353  526.530
 qmmm_force_with_gaussian_low        41  6.0    0.000    0.000  447.730  450.403
 qmmm_forces_gaussian_low_R          41  7.0    0.000    0.000  441.480  441.916
 qmmm_forces_with_gaussian_LR        41  8.0  441.480  441.916  441.480  441.916
 xc_rho_set_and_dset_create         516 12.7    9.248   11.274  319.391  331.006
 mp_alltoall_z22v                  9018 17.3  280.041  294.608  280.041  294.608
 qs_rho_update_rho                  516  8.0    0.003    0.003  281.953  281.964
 calculate_rho_elec                 516  9.0    2.263   12.575  281.950  281.961
 density_rs2pw                      516 10.0    0.047    0.059  265.983  268.736
 x_to_yz                           4808 16.7   66.131   73.509  214.153  220.431
 sum_up_and_integrate               516 10.7    2.340    2.645  188.807  189.105
 integrate_v_rspace                 516 11.7    0.786    6.975  186.466  187.032
 potential_pw2rs                    516 12.7    0.108    0.120  179.090  179.760
 yz_to_x                           4210 15.9   38.760   42.667  170.779  177.480
 rs_pw_transfer                    4374 12.0    0.074    0.111  157.013  158.599
 mp_sum_dm3                         205  6.0  155.483  155.942  155.483  155.942
 pw_zero                          14292  7.5  134.112  150.378  134.112  150.378
 pw_axpy                          12328  8.8  124.353  135.731  124.353  135.731
 qmmm_env_create                      1  2.0   63.342   64.400  106.272  106.276
 qs_ks_update_qs_env_forces          41  5.0    0.000    0.000   87.431   87.441
 init_scf_loop                       42  7.0    0.001    0.001   87.250   87.253
 pw_scatter_p                      4808 15.7   82.268   86.694   82.268   86.694
 -------------------------------------------------------------------------------

 The number of warnings for this run is : 1
 
 -------------------------------------------------------------------------------
  **** **** ******  **  PROGRAM ENDED AT                 2019-03-15 18:33:30.588
 ***** ** ***  *** **   PROGRAM RAN ON                                  nid04199
 **    ****   ******    PROGRAM RAN BY                                  fionabio
 ***** **    ** ** **   PROGRAM PROCESS ID                                 46223
  **** **  *******  **  PROGRAM STOPPED IN /fs3/d118/d118/fionabio/BioExcel2/cp2
                                           k_benchmarks/QMMM/MM/4_nodes/test-4
Application 33917904 resources: utime ~384689s, stime ~25296s, Rss ~2477756, inblocks ~19620496, outblocks ~5478386
