#     Step Nr.          Time[fs]        Kin.[a.u.]          Temp[K]            Pot.[a.u.]        Cons Qty[a.u.]        UsedTime[s]
         0            0.000000        40.175949793       299.249817787      -484.105023655      -443.928602006         0.000000000
         1            1.000000        40.157374363       299.111459041      -484.052369544      -443.891748112       260.030442568
         2            2.000000        40.163796009       299.159290551      -484.064784175      -443.894935663        84.880776377
         3            3.000000        40.211475753       299.514432242      -484.126299473      -443.905931543        85.903684624
         4            4.000000        40.239271186       299.721466006      -484.141163450      -443.890117335        83.984505309
         5            5.000000        40.412205605       301.009564820      -484.345276349      -443.918355591        85.502670161
