#     Step Nr.          Time[fs]        Kin.[a.u.]          Temp[K]            Pot.[a.u.]        Cons Qty[a.u.]        UsedTime[s]
         0            0.000000        43.984410325       299.396680004      -253.053219647      -209.068337466         0.000000000
         1            1.000000        43.870291344       298.619885591      -252.908036766      -209.034371586       432.941409552
         2            2.000000        43.981905927       299.379632863      -253.047482488      -209.059276819       136.558086371
         3            3.000000        44.101811215       300.195813980      -253.178573117      -209.067487501       124.687770280
         4            4.000000        44.145445314       300.492826129      -253.198568064      -209.040805048       119.605515881
         5            5.000000        44.295926255       301.517132098      -253.378752701      -209.067382041       136.164856595
