#     Step Nr.          Time[fs]        Kin.[a.u.]          Temp[K]            Pot.[a.u.]        Cons Qty[a.u.]        UsedTime[s]
         0            0.000000        43.984410325       299.396680004      -253.053219649      -209.068337468         0.000000000
         1            1.000000        43.870291344       298.619885591      -252.908036768      -209.034371588       460.969752738
         2            2.000000        43.981905927       299.379632863      -253.047482491      -209.059276821       145.425503203
         3            3.000000        44.101811215       300.195813980      -253.178573119      -209.067487503       133.821380330
         4            4.000000        44.145445314       300.492826129      -253.198568066      -209.040805050       127.702136919
         5            5.000000        44.295926255       301.517132098      -253.378752703      -209.067382044       145.871092106
