CrayPat/X:  Version 6.4.6 Revision 7d0d87c  02/20/17 09:52:37
 *******************************************************************************
 *                            RESTART INFORMATION                              *
 *******************************************************************************
 *                                                                             *
 *    RESTART FILE NAME: NPT-1.restart                                         *
 *                                                                             *
 * RESTARTED QUANTITIES:                                                       *
 *                       CELL                                                  *
 *                       COORDINATES                                           *
 *                       RANDOM NUMBER GENERATOR                               *
 *                       VELOCITIES                                            *
 *                       MD AVERAGES                                           *
 *                       REAL TIME PROPAGATION                                 *
 *                       PINT BEAD POSITIONS                                   *
 *                       PINT BEAD VELOCITIES                                  *
 *                       PINT NOSE THERMOSTAT                                  *
 *                       PINT GLE THERMOSTAT                                   *
 *                       HELIUM BEAD POSITIONS                                 *
 *                       HELIUM PERMUTATION STATE                              *
 *                       HELIUM FORCES ON SOLUTE                               *
 *                       HELIUM RNG STATE                                      *
 *******************************************************************************

 DBCSR| Multiplication driver                                               XSMM
 DBCSR| Multrec recursion limit                                              512
 DBCSR| Multiplication stack size                                           1000
 DBCSR| Maximum elements for images                                    UNLIMITED
 DBCSR| Multiplicative factor virtual images                                   1
 DBCSR| Multiplication size stacks                                             3
 DBCSR| Number of 3D layers                                               SINGLE
 DBCSR| Use MPI memory allocation                                              T
 DBCSR| Use RMA algorithm                                                      F
 DBCSR| Use Communication thread                                               T
 DBCSR| Communication thread load                                             87


  **** **** ******  **  PROGRAM STARTED AT               2019-03-06 11:01:09.252
 ***** ** ***  *** **   PROGRAM STARTED ON                              nid02142
 **    ****   ******    PROGRAM STARTED BY                              fionabio
 ***** **    ** ** **   PROGRAM PROCESS ID                                 46060
  **** **  *******  **  PROGRAM STARTED IN /fs3/d118/d118/fionabio/BioExcel2/cp2
                                           k_benchmarks/QMMM/QM/2_nodes/test-1

 CP2K| version string:                                          CP2K version 6.1
 CP2K| source code revision number:                                    svn:18464
 CP2K| cp2kflags: omp libint fftw3 libxc elpa=201605 elpa_qr parallel mpi3 scala
 CP2K|            pack xsmm libgrid has_no_shared_glibc max_contr=4 statm_resident plumed2
 CP2K| is freely available from                            https://www.cp2k.org/
 CP2K| Program compiled at                          Fri Feb 15 14:30:53 GMT 2019
 CP2K| Program compiled on                                            eslogin007
 CP2K| Program compiled for                                       ARCHER_craypat
 CP2K| Data directory path                     /work/y07/y07/cp2k/6.1.18464/data
 CP2K| Input file name                                       fr_qmmm_40steps.inp

 GLOBAL| Force Environment number                                              1
 GLOBAL| Basis set file name                                           BASIS_SET
 GLOBAL| Potential file name                                           POTENTIAL
 GLOBAL| MM Potential file name                                     MM_POTENTIAL
 GLOBAL| Coordinate file name                                      __STD_INPUT__
 GLOBAL| Method name                                                        CP2K
 GLOBAL| Project name                                                       QMMM
 GLOBAL| Preferred FFT library                                             FFTW3
 GLOBAL| Preferred diagonalization lib.                                       SL
 GLOBAL| Run type                                                             MD
 GLOBAL| All-to-all communication in single precision                          F
 GLOBAL| FFTs using library dependent lengths                                  F
 GLOBAL| Global print level                                                  LOW
 GLOBAL| Total number of message passing processes                            48
 GLOBAL| Number of threads for this process                                    1
 GLOBAL| This output is from process                                           0
 GLOBAL| CPU model name :  Intel(R) Xeon(R) CPU E5-2697 v2 @ 2.70GHz

 MEMORY| system memory details [Kb]
 MEMORY|                        rank 0           min           max       average
 MEMORY| MemTotal             66072152      66072152     132263504      99167828
 MEMORY| MemFree              61035168      61035168     126455224      93745196
 MEMORY| Buffers                     0             0             0             0
 MEMORY| Cached                 284416        280044        284416        282230
 MEMORY| Slab                   273480        273480        274664        274072
 MEMORY| SReclaimable             8824          8664          8824          8744
 MEMORY| MemLikelyFree        61328408      61328408     126743932      94036170



                      ************* ******** ***********   
                     ************* **********************  
                     ****     **** ****      ***********   
                     ******** ****  *******     ****       
                     *******  ****   *******   ****        
                     ****     ****       ****  ****        
                     ****     **** **********  ****        
                      ****     **** ********    ****       
                     FRONTIERS IN SIMULATION TECHNOLOGY    
                                                           
                        C.J. Mundy, S. Balasubramanian,    
                     Ken Bagchi, J. Hutter, Ari Seitsonen  
                      IFW Kuo, T. Laino, J. VandeVondele   
                                 Version 1.0               

                                                           


 EWALD| Summation is done by:                                               SPME
 EWALD| Alpha parameter [       ANGSTROM^-1]                              0.4000
 EWALD| Real Space Cutoff [          ANGSTROM]                            8.4348
 EWALD| G-space max. Miller index                         80        80        80
 EWALD| Spline interpolation order                                             6

 FORCEFIELD| WARNING: A non Critical ForceField parameter is missing! CP2K GOES!
 FORCEFIELD| Non critical parameters are:Urey-Bradley,Torsions,Impropers, Opbends and 1-4
 FORCEFIELD| All missing parameters will not contribute to the potential energy!
 FORCEFIELD| Activate the print key FF_INFO to have a list of missing parameters

 CHARGE_INFO| Total Charge of the Classical System:                     0.000000

 SPLINE_INFO| Generating 56953 splines for NONBONDED14 interactions 
              Due to 337 different atomic kinds
  ...5695  ...11390  ...17085  ...22780  ...28475  ...34170  ...39865  ...45560  ...51255  ...56950
 SPLINE_INFO| Number of unique splines computed:            137
 SPLINE_INFO| Done

 SPLINE_INFO| Generating 56953 splines for NONBONDED interactions 
              Due to 337 different atomic kinds
  ...5695  ...11390  ...17085  ...22780  ...28475  ...34170  ...39865  ...45560  ...51255  ...56950
 SPLINE_INFO| Number of unique splines computed:            137
 SPLINE_INFO| Done

 *******************************************************************************
 *******************************************************************************
 **                                                                           **
 **     #####                         ##              ##                      **
 **    ##   ##            ##          ##              ##                      **
 **   ##     ##                       ##            ######                    **
 **   ##     ##  ##   ##  ##   #####  ##  ##   ####   ##    #####    #####    **
 **   ##     ##  ##   ##  ##  ##      ## ##   ##      ##   ##   ##  ##   ##   **
 **   ##  ## ##  ##   ##  ##  ##      ####     ###    ##   ######   ######    **
 **    ##  ###   ##   ##  ##  ##      ## ##      ##   ##   ##       ##        **
 **     #######   #####   ##   #####  ##  ##  ####    ##    #####   ##        **
 **           ##                                                    ##        **
 **                                                                           **
 **                                                ... make the atoms dance   **
 **                                                                           **
 **            Copyright (C) by CP2K developers group (2000 - 2018)           **
 **                                                                           **
 *******************************************************************************


 TOTAL NUMBERS AND MAXIMUM NUMBERS

  Total number of            - Atomic kinds:                                   5
                             - Atoms:                                         22
                             - Shell sets:                                    44
                             - Shells:                                        94
                             - Primitive Cartesian functions:                110
                             - Cartesian basis functions:                    236
                             - Spherical basis functions:                    222

  Maximum angular momentum of- Orbital basis functions:                        2
                             - Local part of the GTH pseudopotential:          2
                             - Non-local part of the GTH pseudopotential:      0


 SCF PARAMETERS         Density guess:                                    ATOMIC
                        --------------------------------------------------------
                        max_scf:                                              30
                        max_scf_history:                                       0
                        max_diis:                                              4
                        --------------------------------------------------------
                        eps_scf:                                        1.00E-06
                        eps_scf_history:                                0.00E+00
                        eps_diis:                                       1.00E-01
                        eps_eigval:                                     1.00E-05
                        --------------------------------------------------------
                        level_shift [a.u.]:                                 0.00
                        --------------------------------------------------------
                        Outer loop SCF in use 
                        No variables optimised in outer loop
                        eps_scf                                         1.00E-06
                        max_scf                                               10
                        No outer loop optimization
                        step_size                                       5.00E-01

 *******************************************************************************
 *******************************************************************************
 **                                                                           **
 **             #######  ##     ## ##     ## ##     ##                        **
 **            ##     ## ###   ### ###   ### ###   ###                        **
 **            ##     ## #### #### #### #### #### ####                        **
 **            ##     ## ## ### ## ## ### ## ## ### ##                        **
 **            ##  ## ## ##     ## ##     ## ##     ##                        **
 **            ##    ##  ##     ## ##     ## ##     ##  T.Laino and F.Mohamed **
 **             ##### ## ##     ## ##     ## ##     ##  2005 - 2015           **
 **                                                                           **
 **                                                     Calculation Started.. **
 *******************************************************************************
 *******************************************************************************

 MD| Molecular Dynamics Protocol 
 MD| Ensemble Type                                                           NVT
 MD| Number of Time Steps                                                     40
 MD| Time Step [fs]                                                         1.00
 MD| Temperature [K]                                                      298.00
 MD| Temperature tolerance [K]                                              0.00
 MD| Print MD information every                                        1 step(s)
 MD| File type     Print frequency[steps]                             File names
 MD| Coordinates          100                                     QMMM-pos-1.xyz
 MD| Velocities             1                                     QMMM-vel-1.xyz
 MD| Energies               1                                        QMMM-1.ener
 MD| Dump                1000                                     QMMM-1.restart

 ROT| Rotational Analysis Info 
 ROT| Principal axes and moments of inertia in atomic units:
 ROT|                                1                 2                 3
 ROT| EIGENVALUES            0.684222771E+12   0.824984710E+12   0.857051527E+12
 ROT|      X                     0.994031516       0.079445441       0.074764740
 ROT|      Y                     0.053274698      -0.951557830       0.302819259
 ROT|      Z                    -0.095200583       0.297028818       0.950110904
 ROT| Numer of Rotovibrational vectors:     6

 Calculation of degrees of freedom
                                                      Number of atoms:     28264
                                 Number of Intramolecular constraints:         0
                                 Number of Intermolecular constraints:         0
                                  Invariants(translation + rotations):         3
                                                   Degrees of freedom:     84789


 Restraints Information
                                  Number of Intramolecular restraints:         0
                                  Number of Intermolecular restraints:         0

 THERMOSTAT| Thermostat Info for PARTICLES
 THERMOSTAT| Type of thermostat                               Nose-Hoover-Chains
 THERMOSTAT| Nose-Hoover-Chain length                                          3
 THERMOSTAT| Nose-Hoover-Chain time constant [  fs]                       100.00
 THERMOSTAT| Order of Yoshida integrator                                       3
 THERMOSTAT| Number of multiple time steps                                     2
 THERMOSTAT| Initial Potential Energy                                   0.000000
 THERMOSTAT| Initial Kinetic Energy                                     0.000472
 THERMOSTAT| End of Thermostat Info for PARTICLES

 ************************** Velocities initialization **************************
 Initial Temperature                                                    299.25 K
 COM velocity:            0.000000000000      0.000000000000     -0.000000000000
 *******************************************************************************


  Translating the system in order to center the QM fragment in the QM box.

 Number of electrons:                                                         70
 Number of occupied orbitals:                                                 35
 Number of molecular orbitals:                                                35

 Number of orbital functions:                                                222
 Number of independent orbital functions:                                    222

 Extrapolation method: initial_guess


 SCF WAVEFUNCTION OPTIMIZATION

  ----------------------------------- OT ---------------------------------------
  Minimizer      : DIIS                : direct inversion
                                         in the iterative subspace
                                         using   7 DIIS vectors
                                         safer DIIS on
  Preconditioner : FULL_SINGLE_INVERSE : inversion of 
                                         H + eS - 2*(Sc)(c^T*H*c+const)(Sc)^T
  Precond_solver : DEFAULT
  stepsize       :    0.08000000                  energy_gap     :    0.08000000
  eps_taylor     :   0.10000E-15                  max_taylor     :             4
  ----------------------------------- OT ---------------------------------------

  Step     Update method      Time    Convergence         Total energy    Change
  ------------------------------------------------------------------------------
     1 OT DIIS     0.80E-01    4.1     0.09433171      -106.8333347574 -1.07E+02
     2 OT DIIS     0.80E-01    4.9     0.06393255      -110.5411769636 -3.71E+00
     3 OT DIIS     0.80E-01    4.9     0.04243238      -112.0888920435 -1.55E+00
     4 OT DIIS     0.80E-01    4.9     0.02715380      -113.0539942696 -9.65E-01
     5 OT DIIS     0.80E-01    4.9     0.01572954      -113.3029488579 -2.49E-01
     6 OT DIIS     0.80E-01    4.9     0.01071599      -113.4458264753 -1.43E-01
     7 OT DIIS     0.80E-01    4.9     0.00629794      -113.5300324021 -8.42E-02
     8 OT DIIS     0.80E-01    4.9     0.00431986      -113.5617104735 -3.17E-02
     9 OT DIIS     0.80E-01    4.9     0.00291247      -113.5785093942 -1.68E-02
    10 OT DIIS     0.80E-01    4.9     0.00194303      -113.5888737072 -1.04E-02
    11 OT DIIS     0.80E-01    4.9     0.00135279      -113.5938570067 -4.98E-03
    12 OT DIIS     0.80E-01    4.9     0.00098606      -113.5962599422 -2.40E-03
    13 OT DIIS     0.80E-01    4.9     0.00074710      -113.5975585569 -1.30E-03
    14 OT DIIS     0.80E-01    4.9     0.00057301      -113.5983085469 -7.50E-04
    15 OT DIIS     0.80E-01    4.9     0.00045634      -113.5987748135 -4.66E-04
    16 OT DIIS     0.80E-01    4.9     0.00036815      -113.5990281911 -2.53E-04
    17 OT DIIS     0.80E-01    4.9     0.00029398      -113.5992345452 -2.06E-04
    18 OT DIIS     0.80E-01    4.9     0.00024603      -113.5993636452 -1.29E-04
    19 OT DIIS     0.80E-01    4.9     0.00020026      -113.5994665465 -1.03E-04
    20 OT DIIS     0.80E-01    4.9     0.00016277      -113.5995462762 -7.97E-05
    21 OT DIIS     0.80E-01    4.9     0.00013603      -113.5995966232 -5.03E-05
    22 OT DIIS     0.80E-01    4.9     0.00011127      -113.5996303773 -3.38E-05
    23 OT DIIS     0.80E-01    4.9     0.00009145      -113.5996553040 -2.49E-05
    24 OT DIIS     0.80E-01    4.9     0.00007709      -113.5996687867 -1.35E-05
    25 OT DIIS     0.80E-01    4.9     0.00005998      -113.5996795214 -1.07E-05
    26 OT DIIS     0.80E-01    4.9     0.00004923      -113.5996858846 -6.36E-06
    27 OT DIIS     0.80E-01    4.9     0.00003978      -113.5996896505 -3.77E-06
    28 OT DIIS     0.80E-01    4.9     0.00003176      -113.5996924015 -2.75E-06
    29 OT DIIS     0.80E-01    4.9     0.00002657      -113.5996940321 -1.63E-06
    30 OT DIIS     0.80E-01    4.9     0.00002207      -113.5996950006 -9.69E-07

  Leaving inner SCF loop after reaching    30 steps.


  Electronic density on regular grids:        -69.9999999940        0.0000000060
  Core density on regular grids:               69.9999999956       -0.0000000044
  Total charge density on r-space grids:        0.0000000016
  Total charge density g-space grids:           0.0000000016

  Overlap energy of the core charge distribution:               0.00000518703036
  Self energy of the core charge distribution:               -278.09582761455005
  Core Hamiltonian energy:                                     84.58606439349262
  Hartree energy:                                             112.38537079820495
  Exchange-correlation energy:                                -31.92717521183938
  QM/MM Electrostatic energy:                                  -0.54813255297220

  Total energy:                                              -113.59969500063369

  outer SCF iter =    1 RMS gradient =   0.22E-04 energy =       -113.5996950006

  ----------------------------------- OT ---------------------------------------
  Minimizer      : DIIS                : direct inversion
                                         in the iterative subspace
                                         using   7 DIIS vectors
                                         safer DIIS on
  Preconditioner : FULL_SINGLE_INVERSE : inversion of 
                                         H + eS - 2*(Sc)(c^T*H*c+const)(Sc)^T
  Precond_solver : DEFAULT
  stepsize       :    0.08000000                  energy_gap     :    0.08000000
  eps_taylor     :   0.10000E-15                  max_taylor     :             4
  ----------------------------------- OT ---------------------------------------

  Step     Update method      Time    Convergence         Total energy    Change
  ------------------------------------------------------------------------------
     1 OT DIIS     0.80E-01    9.9     0.00004259      -113.5996957062 -7.06E-07
     2 OT DIIS     0.80E-01    4.9     0.00003004      -113.5996965925 -8.86E-07
     3 OT DIIS     0.80E-01    4.9     0.00003268      -113.5996970069 -4.14E-07
     4 OT DIIS     0.80E-01    4.9     0.00001425      -113.5996973481 -3.41E-07
     5 OT DIIS     0.80E-01    4.9     0.00000691      -113.5996974278 -7.96E-08
     6 OT DIIS     0.80E-01    4.9     0.00000384      -113.5996974464 -1.86E-08
     7 OT DIIS     0.80E-01    4.9     0.00000252      -113.5996974513 -4.96E-09
     8 OT DIIS     0.80E-01    4.9     0.00000142      -113.5996974529 -1.56E-09
     9 OT DIIS     0.80E-01    4.9     0.00000071      -113.5996974534 -5.03E-10

  *** SCF run converged in     9 steps ***


  Electronic density on regular grids:        -69.9999999940        0.0000000060
  Core density on regular grids:               69.9999999956       -0.0000000044
  Total charge density on r-space grids:        0.0000000016
  Total charge density g-space grids:           0.0000000016

  Overlap energy of the core charge distribution:               0.00000518703036
  Self energy of the core charge distribution:               -278.09582761455005
  Core Hamiltonian energy:                                     84.58593668573305
  Hartree energy:                                             112.38545557346239
  Exchange-correlation energy:                                -31.92710868674903
  QM/MM Electrostatic energy:                                  -0.54815859833832

  Total energy:                                              -113.59969745341161

  outer SCF iter =    2 RMS gradient =   0.71E-06 energy =       -113.5996974534
  outer SCF loop converged in   2 iterations or   39 steps


 ENERGY| Total FORCE_EVAL ( QMMM ) energy (a.u.):           -238.947395130822883


 MD_ENERGIES| Initialization proceeding


 ******************************** GO CP2K GO! **********************************
 INITIAL POTENTIAL ENERGY[hartree]     =                     -0.238947395131E+03
 TOTAL INITIAL KINETIC ENERGY[hartree] =                      0.401759497934E+02
 QM INITIAL KINETIC ENERGY[hartree]    =                      0.344042003399E-01
 TOTAL INITIAL TEMPERATURE[K]          =                                 299.250
 QM INITIAL TEMPERATURE[K]             =                                 329.211
 INITIAL VOLUME[bohr^3]                =                      0.200731366996E+07
 INITIAL CELL LNTHS[bohr]   =      0.1406963E+03   0.1233340E+03   0.1156777E+03
 INITIAL CELL ANGLS[deg]    =      0.9000000E+02   0.9000000E+02   0.9000000E+02
 ******************************** GO CP2K GO! **********************************

  Translating the system in order to center the QM fragment in the QM box.

 Number of electrons:                                                         70
 Number of occupied orbitals:                                                 35
 Number of molecular orbitals:                                                35

 Number of orbital functions:                                                222
 Number of independent orbital functions:                                    222

 Extrapolation method: ASPC


 SCF WAVEFUNCTION OPTIMIZATION

  ----------------------------------- OT ---------------------------------------
  Minimizer      : DIIS                : direct inversion
                                         in the iterative subspace
                                         using   7 DIIS vectors
                                         safer DIIS on
  Preconditioner : FULL_SINGLE_INVERSE : inversion of 
                                         H + eS - 2*(Sc)(c^T*H*c+const)(Sc)^T
  Precond_solver : DEFAULT
  stepsize       :    0.08000000                  energy_gap     :    0.08000000
  eps_taylor     :   0.10000E-15                  max_taylor     :             4
  ----------------------------------- OT ---------------------------------------

  Step     Update method      Time    Convergence         Total energy    Change
  ------------------------------------------------------------------------------
     1 OT DIIS     0.80E-01    4.0     0.00159905      -113.6446974689 -1.14E+02
     2 OT DIIS     0.80E-01    4.9     0.00087491      -113.6457301190 -1.03E-03
     3 OT DIIS     0.80E-01    4.9     0.00063638      -113.6460094885 -2.79E-04
     4 OT DIIS     0.80E-01    4.9     0.00043615      -113.6461453963 -1.36E-04
     5 OT DIIS     0.80E-01    4.9     0.00019627      -113.6461803700 -3.50E-05
     6 OT DIIS     0.80E-01    4.9     0.00008842      -113.6461910412 -1.07E-05
     7 OT DIIS     0.80E-01    4.9     0.00005115      -113.6461937497 -2.71E-06
     8 OT DIIS     0.80E-01    4.9     0.00002894      -113.6461944615 -7.12E-07
     9 OT DIIS     0.80E-01    4.9     0.00001709      -113.6461946198 -1.58E-07
    10 OT DIIS     0.80E-01    4.9     0.00000753      -113.6461946851 -6.52E-08
    11 OT DIIS     0.80E-01    4.9     0.00000504      -113.6461947024 -1.74E-08
    12 OT DIIS     0.80E-01    4.9     0.00000322      -113.6461947087 -6.23E-09
    13 OT DIIS     0.80E-01    4.9     0.00000227      -113.6461947104 -1.72E-09
    14 OT DIIS     0.80E-01    4.9     0.00000134      -113.6461947112 -7.67E-10
    15 OT DIIS     0.80E-01    4.9     0.00000068      -113.6461947115 -3.38E-10

  *** SCF run converged in    15 steps ***


  Electronic density on regular grids:        -69.9999999905        0.0000000095
  Core density on regular grids:               69.9999999957       -0.0000000043
  Total charge density on r-space grids:        0.0000000051
  Total charge density g-space grids:           0.0000000051

  Overlap energy of the core charge distribution:               0.00000391681808
  Self energy of the core charge distribution:               -278.09582761455005
  Core Hamiltonian energy:                                     84.48987366691441
  Hartree energy:                                             112.44750308289420
  Exchange-correlation energy:                                -31.90043511878511
  QM/MM Electrostatic energy:                                  -0.58731264478340

  Total energy:                                              -113.64619471149189

  outer SCF iter =    1 RMS gradient =   0.68E-06 energy =       -113.6461947115
  outer SCF loop converged in   1 iterations or   15 steps


 ENERGY| Total FORCE_EVAL ( QMMM ) energy (a.u.):           -238.897069869309775


 *******************************************************************************
 ENSEMBLE TYPE                =                                              NVT
 STEP NUMBER                  =                                                1
 TIME [fs]                    =                                         1.000000
 CONSERVED QUANTITY [hartree] =                              -0.198739504727E+03

                                              INSTANTANEOUS             AVERAGES
 CPU TIME [s]                 =                      374.34               374.34
 ENERGY DRIFT PER ATOM [K]    =          0.351579212953E+00   0.000000000000E+00
 POTENTIAL ENERGY[hartree]    =         -0.238897069869E+03  -0.238897069869E+03
 TOTAL KINETIC ENERGY[hartree]=          0.401543182555E+02   0.401543182555E+02
 QM KINETIC ENERGY[hartree]   =          0.420548904279E-01   0.420548904279E-01
 TOTAL TEMPERATURE[K]         =                     299.089              299.089
 QM TEMPERATURE[K]            =                     402.420              402.420
 *******************************************************************************


  Translating the system in order to center the QM fragment in the QM box.

 Number of electrons:                                                         70
 Number of occupied orbitals:                                                 35
 Number of molecular orbitals:                                                35

 Number of orbital functions:                                                222
 Number of independent orbital functions:                                    222

 Extrapolation method: ASPC


 SCF WAVEFUNCTION OPTIMIZATION

  ----------------------------------- OT ---------------------------------------
  Minimizer      : DIIS                : direct inversion
                                         in the iterative subspace
                                         using   7 DIIS vectors
                                         safer DIIS on
  Preconditioner : FULL_SINGLE_INVERSE : inversion of 
                                         H + eS - 2*(Sc)(c^T*H*c+const)(Sc)^T
  Precond_solver : DEFAULT
  stepsize       :    0.08000000                  energy_gap     :    0.08000000
  eps_taylor     :   0.10000E-15                  max_taylor     :             4
  ----------------------------------- OT ---------------------------------------

  Step     Update method      Time    Convergence         Total energy    Change
  ------------------------------------------------------------------------------
     1 OT DIIS     0.80E-01    4.0     0.00054402      -113.6320005571 -1.14E+02
     2 OT DIIS     0.80E-01    4.9     0.00029588      -113.6321262311 -1.26E-04
     3 OT DIIS     0.80E-01    4.9     0.00022178      -113.6321616584 -3.54E-05
     4 OT DIIS     0.80E-01    4.9     0.00007941      -113.6321785111 -1.69E-05
     5 OT DIIS     0.80E-01    4.9     0.00004092      -113.6321814563 -2.95E-06
     6 OT DIIS     0.80E-01    4.9     0.00002618      -113.6321821574 -7.01E-07
     7 OT DIIS     0.80E-01    4.9     0.00001281      -113.6321823416 -1.84E-07
     8 OT DIIS     0.80E-01    4.9     0.00000784      -113.6321823839 -4.23E-08
     9 OT DIIS     0.80E-01    4.9     0.00000375      -113.6321823908 -6.86E-09
    10 OT DIIS     0.80E-01    4.9     0.00000224      -113.6321823954 -4.59E-09
    11 OT DIIS     0.80E-01    4.9     0.00000140      -113.6321823970 -1.59E-09
    12 OT DIIS     0.80E-01    4.9     0.00000087      -113.6321823974 -4.64E-10

  *** SCF run converged in    12 steps ***


  Electronic density on regular grids:        -69.9999999927        0.0000000073
  Core density on regular grids:               69.9999999958       -0.0000000042
  Total charge density on r-space grids:        0.0000000030
  Total charge density g-space grids:           0.0000000030

  Overlap energy of the core charge distribution:               0.00000342752676
  Self energy of the core charge distribution:               -278.09582761455005
  Core Hamiltonian energy:                                     84.37238233458932
  Hartree energy:                                             112.52757642449572
  Exchange-correlation energy:                                -31.86837291566356
  QM/MM Electrostatic energy:                                  -0.56794405382141

  Total energy:                                              -113.63218239742321

  outer SCF iter =    1 RMS gradient =   0.87E-06 energy =       -113.6321823974
  outer SCF loop converged in   1 iterations or   12 steps


 ENERGY| Total FORCE_EVAL ( QMMM ) energy (a.u.):           -238.904509916533186


 *******************************************************************************
 ENSEMBLE TYPE                =                                              NVT
 STEP NUMBER                  =                                                2
 TIME [fs]                    =                                         2.000000
 CONSERVED QUANTITY [hartree] =                              -0.198743683858E+03

                                              INSTANTANEOUS             AVERAGES
 CPU TIME [s]                 =                      112.61               243.48
 ENERGY DRIFT PER ATOM [K]    =          0.304888594973E+00   0.152444297486E+00
 POTENTIAL ENERGY[hartree]    =         -0.238904509917E+03  -0.238900789893E+03
 TOTAL KINETIC ENERGY[hartree]=          0.401547749240E+02   0.401545465898E+02
 QM KINETIC ENERGY[hartree]   =          0.486371069970E-01   0.453459987125E-01
 TOTAL TEMPERATURE[K]         =                     299.092              299.090
 QM TEMPERATURE[K]            =                     465.405              433.913
 *******************************************************************************


  Translating the system in order to center the QM fragment in the QM box.

 Number of electrons:                                                         70
 Number of occupied orbitals:                                                 35
 Number of molecular orbitals:                                                35

 Number of orbital functions:                                                222
 Number of independent orbital functions:                                    222

 Extrapolation method: ASPC


 SCF WAVEFUNCTION OPTIMIZATION

  ----------------------------------- OT ---------------------------------------
  Minimizer      : DIIS                : direct inversion
                                         in the iterative subspace
                                         using   7 DIIS vectors
                                         safer DIIS on
  Preconditioner : FULL_SINGLE_INVERSE : inversion of 
                                         H + eS - 2*(Sc)(c^T*H*c+const)(Sc)^T
  Precond_solver : DEFAULT
  stepsize       :    0.08000000                  energy_gap     :    0.08000000
  eps_taylor     :   0.10000E-15                  max_taylor     :             4
  ----------------------------------- OT ---------------------------------------

  Step     Update method      Time    Convergence         Total energy    Change
  ------------------------------------------------------------------------------
     1 OT DIIS     0.80E-01    4.0     0.00067753      -113.6038610225 -1.14E+02
     2 OT DIIS     0.80E-01    4.9     0.00039394      -113.6039996259 -1.39E-04
     3 OT DIIS     0.80E-01    4.9     0.00020801      -113.6040346406 -3.50E-05
     4 OT DIIS     0.80E-01    4.9     0.00011975      -113.6040509602 -1.63E-05
     5 OT DIIS     0.80E-01    4.9     0.00008040      -113.6040545256 -3.57E-06
     6 OT DIIS     0.80E-01    4.9     0.00003143      -113.6040560801 -1.55E-06
     7 OT DIIS     0.80E-01    4.9     0.00001873      -113.6040564565 -3.76E-07
     8 OT DIIS     0.80E-01    4.9     0.00001048      -113.6040565182 -6.17E-08
     9 OT DIIS     0.80E-01    4.9     0.00000455      -113.6040565624 -4.43E-08
    10 OT DIIS     0.80E-01    4.9     0.00000248      -113.6040565655 -3.01E-09
    11 OT DIIS     0.80E-01    4.9     0.00000135      -113.6040565654  3.96E-11
    12 OT DIIS     0.80E-01    4.9     0.00000085      -113.6040565662 -7.90E-10

  *** SCF run converged in    12 steps ***


  Electronic density on regular grids:        -69.9999999970        0.0000000030
  Core density on regular grids:               69.9999999958       -0.0000000042
  Total charge density on r-space grids:       -0.0000000013
  Total charge density g-space grids:          -0.0000000013

  Overlap energy of the core charge distribution:               0.00000355017111
  Self energy of the core charge distribution:               -278.09582761455005
  Core Hamiltonian energy:                                     84.27214984856300
  Hartree energy:                                             112.59934313757739
  Exchange-correlation energy:                                -31.84259539671081
  QM/MM Electrostatic energy:                                  -0.53713009126095

  Total energy:                                              -113.60405656621028

  outer SCF iter =    1 RMS gradient =   0.85E-06 energy =       -113.6040565662
  outer SCF loop converged in   1 iterations or   12 steps


 ENERGY| Total FORCE_EVAL ( QMMM ) energy (a.u.):           -238.959112983058333


 *******************************************************************************
 ENSEMBLE TYPE                =                                              NVT
 STEP NUMBER                  =                                                3
 TIME [fs]                    =                                         3.000000
 CONSERVED QUANTITY [hartree] =                              -0.198755708773E+03

                                              INSTANTANEOUS             AVERAGES
 CPU TIME [s]                 =                      111.90               199.62
 ENERGY DRIFT PER ATOM [K]    =          0.170542313925E+00   0.158476969633E+00
 POTENTIAL ENERGY[hartree]    =         -0.238959112983E+03  -0.238920230923E+03
 TOTAL KINETIC ENERGY[hartree]=          0.401945169444E+02   0.401678700413E+02
 QM KINETIC ENERGY[hartree]   =          0.529995683754E-01   0.478971886001E-01
 TOTAL TEMPERATURE[K]         =                     299.388              299.190
 QM TEMPERATURE[K]            =                     507.149              458.325
 *******************************************************************************


  Translating the system in order to center the QM fragment in the QM box.

 Number of electrons:                                                         70
 Number of occupied orbitals:                                                 35
 Number of molecular orbitals:                                                35

 Number of orbital functions:                                                222
 Number of independent orbital functions:                                    222

 Extrapolation method: ASPC


 SCF WAVEFUNCTION OPTIMIZATION

  ----------------------------------- OT ---------------------------------------
  Minimizer      : DIIS                : direct inversion
                                         in the iterative subspace
                                         using   7 DIIS vectors
                                         safer DIIS on
  Preconditioner : FULL_SINGLE_INVERSE : inversion of 
                                         H + eS - 2*(Sc)(c^T*H*c+const)(Sc)^T
  Precond_solver : DEFAULT
  stepsize       :    0.08000000                  energy_gap     :    0.08000000
  eps_taylor     :   0.10000E-15                  max_taylor     :             4
  ----------------------------------- OT ---------------------------------------

  Step     Update method      Time    Convergence         Total energy    Change
  ------------------------------------------------------------------------------
     1 OT DIIS     0.80E-01    4.0     0.00088390      -113.5576141816 -1.14E+02
     2 OT DIIS     0.80E-01    4.9     0.00045446      -113.5578584980 -2.44E-04
     3 OT DIIS     0.80E-01    4.9     0.00026005      -113.5579054309 -4.69E-05
     4 OT DIIS     0.80E-01    4.9     0.00014501      -113.5579252859 -1.99E-05
     5 OT DIIS     0.80E-01    4.9     0.00009051      -113.5579302727 -4.99E-06
     6 OT DIIS     0.80E-01    4.9     0.00004233      -113.5579323797 -2.11E-06
     7 OT DIIS     0.80E-01    4.9     0.00002317      -113.5579331359 -7.56E-07
     8 OT DIIS     0.80E-01    4.9     0.00001218      -113.5579332516 -1.16E-07
     9 OT DIIS     0.80E-01    4.9     0.00000589      -113.5579332917 -4.00E-08
    10 OT DIIS     0.80E-01    4.9     0.00000322      -113.5579333059 -1.42E-08
    11 OT DIIS     0.80E-01    4.9     0.00000152      -113.5579333102 -4.29E-09
    12 OT DIIS     0.80E-01    4.9     0.00000090      -113.5579333111 -9.56E-10

  *** SCF run converged in    12 steps ***


  Electronic density on regular grids:        -69.9999999986        0.0000000014
  Core density on regular grids:               69.9999999958       -0.0000000042
  Total charge density on r-space grids:       -0.0000000029
  Total charge density g-space grids:          -0.0000000029

  Overlap energy of the core charge distribution:               0.00000370874361
  Self energy of the core charge distribution:               -278.09582761455005
  Core Hamiltonian energy:                                     84.20221467552491
  Hartree energy:                                             112.64872682562444
  Exchange-correlation energy:                                -31.82686257260803
  QM/MM Electrostatic energy:                                  -0.48618833384703

  Total energy:                                              -113.55793331111211

  outer SCF iter =    1 RMS gradient =   0.90E-06 energy =       -113.5579333111
  outer SCF loop converged in   1 iterations or   12 steps


 ENERGY| Total FORCE_EVAL ( QMMM ) energy (a.u.):           -238.959291386092019


 *******************************************************************************
 ENSEMBLE TYPE                =                                              NVT
 STEP NUMBER                  =                                                4
 TIME [fs]                    =                                         4.000000
 CONSERVED QUANTITY [hartree] =                              -0.198731485299E+03

                                              INSTANTANEOUS             AVERAGES
 CPU TIME [s]                 =                      111.88               177.68
 ENERGY DRIFT PER ATOM [K]    =          0.441174883915E+00   0.229151448203E+00
 POTENTIAL ENERGY[hartree]    =         -0.238959291386E+03  -0.238929996039E+03
 TOTAL KINETIC ENERGY[hartree]=          0.402160435029E+02   0.401799134067E+02
 QM KINETIC ENERGY[hartree]   =          0.582423778687E-01   0.504834859173E-01
 TOTAL TEMPERATURE[K]         =                     299.548              299.279
 QM TEMPERATURE[K]            =                     557.317              483.073
 *******************************************************************************


  Translating the system in order to center the QM fragment in the QM box.

 Number of electrons:                                                         70
 Number of occupied orbitals:                                                 35
 Number of molecular orbitals:                                                35

 Number of orbital functions:                                                222
 Number of independent orbital functions:                                    222

 Extrapolation method: ASPC


 SCF WAVEFUNCTION OPTIMIZATION

  ----------------------------------- OT ---------------------------------------
  Minimizer      : DIIS                : direct inversion
                                         in the iterative subspace
                                         using   7 DIIS vectors
                                         safer DIIS on
  Preconditioner : FULL_SINGLE_INVERSE : inversion of 
                                         H + eS - 2*(Sc)(c^T*H*c+const)(Sc)^T
  Precond_solver : DEFAULT
  stepsize       :    0.08000000                  energy_gap     :    0.08000000
  eps_taylor     :   0.10000E-15                  max_taylor     :             4
  ----------------------------------- OT ---------------------------------------

  Step     Update method      Time    Convergence         Total energy    Change
  ------------------------------------------------------------------------------
     1 OT DIIS     0.80E-01    4.0     0.00111285      -113.5400468911 -1.14E+02
     2 OT DIIS     0.80E-01    4.9     0.00053707      -113.5404299300 -3.83E-04
     3 OT DIIS     0.80E-01    4.9     0.00026939      -113.5405007856 -7.09E-05
     4 OT DIIS     0.80E-01    4.9     0.00012888      -113.5405268529 -2.61E-05
     5 OT DIIS     0.80E-01    4.9     0.00007868      -113.5405321112 -5.26E-06
     6 OT DIIS     0.80E-01    4.9     0.00004047      -113.5405342692 -2.16E-06
     7 OT DIIS     0.80E-01    4.9     0.00001818      -113.5405349719 -7.03E-07
     8 OT DIIS     0.80E-01    4.9     0.00001158      -113.5405351029 -1.31E-07
     9 OT DIIS     0.80E-01    4.9     0.00000652      -113.5405351501 -4.72E-08
    10 OT DIIS     0.80E-01    4.9     0.00000396      -113.5405351689 -1.88E-08
    11 OT DIIS     0.80E-01    4.9     0.00000181      -113.5405351769 -7.97E-09
    12 OT DIIS     0.80E-01    4.9     0.00000096      -113.5405351796 -2.74E-09

  *** SCF run converged in    12 steps ***


  Electronic density on regular grids:        -69.9999999991        0.0000000009
  Core density on regular grids:               69.9999999957       -0.0000000043
  Total charge density on r-space grids:       -0.0000000034
  Total charge density g-space grids:          -0.0000000034

  Overlap energy of the core charge distribution:               0.00000357328597
  Self energy of the core charge distribution:               -278.09582761455005
  Core Hamiltonian energy:                                     84.16699158745905
  Hartree energy:                                             112.67142479243500
  Exchange-correlation energy:                                -31.82260801673376
  QM/MM Electrostatic energy:                                  -0.46051950151487

  Total energy:                                              -113.54053517961863

  outer SCF iter =    1 RMS gradient =   0.96E-06 energy =       -113.5405351796
  outer SCF loop converged in   1 iterations or   12 steps


 ENERGY| Total FORCE_EVAL ( QMMM ) energy (a.u.):           -239.165101397518214


 *******************************************************************************
 ENSEMBLE TYPE                =                                              NVT
 STEP NUMBER                  =                                                5
 TIME [fs]                    =                                         5.000000
 CONSERVED QUANTITY [hartree] =                              -0.198763131814E+03

                                              INSTANTANEOUS             AVERAGES
 CPU TIME [s]                 =                      112.50               164.65
 ENERGY DRIFT PER ATOM [K]    =          0.876096732451E-01   0.200843093212E+00
 POTENTIAL ENERGY[hartree]    =         -0.239165101398E+03  -0.238977017111E+03
 TOTAL KINETIC ENERGY[hartree]=          0.403872791023E+02   0.402213865458E+02
 QM KINETIC ENERGY[hartree]   =          0.656725339680E-01   0.535212955274E-01
 TOTAL TEMPERATURE[K]         =                     300.824              299.588
 QM TEMPERATURE[K]            =                     628.416              512.141
 *******************************************************************************


  Translating the system in order to center the QM fragment in the QM box.

 Number of electrons:                                                         70
 Number of occupied orbitals:                                                 35
 Number of molecular orbitals:                                                35

 Number of orbital functions:                                                222
 Number of independent orbital functions:                                    222

 Extrapolation method: ASPC


 SCF WAVEFUNCTION OPTIMIZATION

  ----------------------------------- OT ---------------------------------------
  Minimizer      : DIIS                : direct inversion
                                         in the iterative subspace
                                         using   7 DIIS vectors
                                         safer DIIS on
  Preconditioner : FULL_SINGLE_INVERSE : inversion of 
                                         H + eS - 2*(Sc)(c^T*H*c+const)(Sc)^T
  Precond_solver : DEFAULT
  stepsize       :    0.08000000                  energy_gap     :    0.08000000
  eps_taylor     :   0.10000E-15                  max_taylor     :             4
  ----------------------------------- OT ---------------------------------------

  Step     Update method      Time    Convergence         Total energy    Change
  ------------------------------------------------------------------------------
     1 OT DIIS     0.80E-01    4.0     0.00093023      -113.4997066835 -1.13E+02
     2 OT DIIS     0.80E-01    4.9     0.00044033      -113.4999972364 -2.91E-04
     3 OT DIIS     0.80E-01    4.9     0.00024983      -113.5000486611 -5.14E-05
     4 OT DIIS     0.80E-01    4.9     0.00010990      -113.5000703069 -2.16E-05
     5 OT DIIS     0.80E-01    4.9     0.00007263      -113.5000744049 -4.10E-06
     6 OT DIIS     0.80E-01    4.9     0.00003882      -113.5000761869 -1.78E-06
     7 OT DIIS     0.80E-01    4.9     0.00001632      -113.5000769515 -7.65E-07
     8 OT DIIS     0.80E-01    4.9     0.00001120      -113.5000770759 -1.24E-07
     9 OT DIIS     0.80E-01    4.9     0.00000646      -113.5000771165 -4.06E-08
    10 OT DIIS     0.80E-01    4.9     0.00000394      -113.5000771339 -1.74E-08
    11 OT DIIS     0.80E-01    4.9     0.00000171      -113.5000771404 -6.55E-09
    12 OT DIIS     0.80E-01    4.9     0.00000089      -113.5000771422 -1.73E-09

  *** SCF run converged in    12 steps ***


  Electronic density on regular grids:        -69.9999999984        0.0000000016
  Core density on regular grids:               69.9999999958       -0.0000000042
  Total charge density on r-space grids:       -0.0000000026
  Total charge density g-space grids:          -0.0000000026

  Overlap energy of the core charge distribution:               0.00000340080360
  Self energy of the core charge distribution:               -278.09582761455005
  Core Hamiltonian energy:                                     84.17600077733003
  Hartree energy:                                             112.66243374162238
  Exchange-correlation energy:                                -31.83121071727075
  QM/MM Electrostatic energy:                                  -0.41147673010089

  Total energy:                                              -113.50007714216564

  outer SCF iter =    1 RMS gradient =   0.89E-06 energy =       -113.5000771422
  outer SCF loop converged in   1 iterations or   12 steps


 ENERGY| Total FORCE_EVAL ( QMMM ) energy (a.u.):           -239.213683482132978


 *******************************************************************************
 ENSEMBLE TYPE                =                                              NVT
 STEP NUMBER                  =                                                6
 TIME [fs]                    =                                         6.000000
 CONSERVED QUANTITY [hartree] =                              -0.198747601613E+03

                                              INSTANTANEOUS             AVERAGES
 CPU TIME [s]                 =                      111.94               155.86
 ENERGY DRIFT PER ATOM [K]    =          0.261118156863E+00   0.210888937154E+00
 POTENTIAL ENERGY[hartree]    =         -0.239213683482E+03  -0.239016461506E+03
 TOTAL KINETIC ENERGY[hartree]=          0.404483812793E+02   0.402592190014E+02
 QM KINETIC ENERGY[hartree]   =          0.726153438248E-01   0.567036369103E-01
 TOTAL TEMPERATURE[K]         =                     301.279              299.870
 QM TEMPERATURE[K]            =                     694.851              542.593
 *******************************************************************************


  Translating the system in order to center the QM fragment in the QM box.

 Number of electrons:                                                         70
 Number of occupied orbitals:                                                 35
 Number of molecular orbitals:                                                35

 Number of orbital functions:                                                222
 Number of independent orbital functions:                                    222

 Extrapolation method: ASPC


 SCF WAVEFUNCTION OPTIMIZATION

  ----------------------------------- OT ---------------------------------------
  Minimizer      : DIIS                : direct inversion
                                         in the iterative subspace
                                         using   7 DIIS vectors
                                         safer DIIS on
  Preconditioner : FULL_SINGLE_INVERSE : inversion of 
                                         H + eS - 2*(Sc)(c^T*H*c+const)(Sc)^T
  Precond_solver : DEFAULT
  stepsize       :    0.08000000                  energy_gap     :    0.08000000
  eps_taylor     :   0.10000E-15                  max_taylor     :             4
  ----------------------------------- OT ---------------------------------------

  Step     Update method      Time    Convergence         Total energy    Change
  ------------------------------------------------------------------------------
     1 OT DIIS     0.80E-01    4.0     0.00069949      -113.4669404006 -1.13E+02
     2 OT DIIS     0.80E-01    4.9     0.00031767      -113.4670961663 -1.56E-04
     3 OT DIIS     0.80E-01    4.9     0.00016056      -113.4671241137 -2.79E-05
     4 OT DIIS     0.80E-01    4.9     0.00007636      -113.4671346526 -1.05E-05
     5 OT DIIS     0.80E-01    4.9     0.00004360      -113.4671368650 -2.21E-06
     6 OT DIIS     0.80E-01    4.9     0.00002242      -113.4671377498 -8.85E-07
     7 OT DIIS     0.80E-01    4.9     0.00000984      -113.4671380035 -2.54E-07
     8 OT DIIS     0.80E-01    4.9     0.00000546      -113.4671380571 -5.36E-08
     9 OT DIIS     0.80E-01    4.9     0.00000315      -113.4671380716 -1.44E-08
    10 OT DIIS     0.80E-01    4.9     0.00000153      -113.4671380803 -8.79E-09
    11 OT DIIS     0.80E-01    4.9     0.00000097      -113.4671380818 -1.46E-09

  *** SCF run converged in    11 steps ***


  Electronic density on regular grids:        -69.9999999976        0.0000000024
  Core density on regular grids:               69.9999999957       -0.0000000043
  Total charge density on r-space grids:       -0.0000000019
  Total charge density g-space grids:          -0.0000000019

  Overlap energy of the core charge distribution:               0.00000358667419
  Self energy of the core charge distribution:               -278.09582761455005
  Core Hamiltonian energy:                                     84.23395559641635
  Hartree energy:                                             112.62333529828429
  Exchange-correlation energy:                                -31.85331247130940
  QM/MM Electrostatic energy:                                  -0.37529247731883

  Total energy:                                              -113.46713808180340

  outer SCF iter =    1 RMS gradient =   0.97E-06 energy =       -113.4671380818
  outer SCF loop converged in   1 iterations or   11 steps


 ENERGY| Total FORCE_EVAL ( QMMM ) energy (a.u.):           -239.262127720469209


 *******************************************************************************
 ENSEMBLE TYPE                =                                              NVT
 STEP NUMBER                  =                                                7
 TIME [fs]                    =                                         7.000000
 CONSERVED QUANTITY [hartree] =                              -0.198737082096E+03

                                              INSTANTANEOUS             AVERAGES
 CPU TIME [s]                 =                      106.96               148.88
 ENERGY DRIFT PER ATOM [K]    =          0.378645644541E+00   0.234854181066E+00
 POTENTIAL ENERGY[hartree]    =         -0.239262127720E+03  -0.239051556679E+03
 TOTAL KINETIC ENERGY[hartree]=          0.405042417142E+02   0.402942222461E+02
 QM KINETIC ENERGY[hartree]   =          0.740148665627E-01   0.591766697178E-01
 TOTAL TEMPERATURE[K]         =                     301.695              300.131
 QM TEMPERATURE[K]            =                     708.243              566.257
 *******************************************************************************


  Translating the system in order to center the QM fragment in the QM box.

 Number of electrons:                                                         70
 Number of occupied orbitals:                                                 35
 Number of molecular orbitals:                                                35

 Number of orbital functions:                                                222
 Number of independent orbital functions:                                    222

 Extrapolation method: ASPC


 SCF WAVEFUNCTION OPTIMIZATION

  ----------------------------------- OT ---------------------------------------
  Minimizer      : DIIS                : direct inversion
                                         in the iterative subspace
                                         using   7 DIIS vectors
                                         safer DIIS on
  Preconditioner : FULL_SINGLE_INVERSE : inversion of 
                                         H + eS - 2*(Sc)(c^T*H*c+const)(Sc)^T
  Precond_solver : DEFAULT
  stepsize       :    0.08000000                  energy_gap     :    0.08000000
  eps_taylor     :   0.10000E-15                  max_taylor     :             4
  ----------------------------------- OT ---------------------------------------

  Step     Update method      Time    Convergence         Total energy    Change
  ------------------------------------------------------------------------------
     1 OT DIIS     0.80E-01    4.0     0.00065766      -113.4219659183 -1.13E+02
     2 OT DIIS     0.80E-01    4.9     0.00031027      -113.4221177921 -1.52E-04
     3 OT DIIS     0.80E-01    4.9     0.00017570      -113.4221481685 -3.04E-05
     4 OT DIIS     0.80E-01    4.9     0.00008163      -113.4221614530 -1.33E-05
     5 OT DIIS     0.80E-01    4.9     0.00005112      -113.4221639383 -2.49E-06
     6 OT DIIS     0.80E-01    4.9     0.00002462      -113.4221649403 -1.00E-06
     7 OT DIIS     0.80E-01    4.9     0.00001160      -113.4221652041 -2.64E-07
     8 OT DIIS     0.80E-01    4.9     0.00000710      -113.4221652616 -5.74E-08
     9 OT DIIS     0.80E-01    4.9     0.00000383      -113.4221652792 -1.77E-08
    10 OT DIIS     0.80E-01    4.9     0.00000212      -113.4221652873 -8.06E-09
    11 OT DIIS     0.80E-01    4.9     0.00000107      -113.4221652896 -2.29E-09
    12 OT DIIS     0.80E-01    4.9     0.00000058      -113.4221652903 -7.04E-10

  *** SCF run converged in    12 steps ***


  Electronic density on regular grids:        -70.0000000015       -0.0000000015
  Core density on regular grids:               69.9999999957       -0.0000000043
  Total charge density on r-space grids:       -0.0000000058
  Total charge density g-space grids:          -0.0000000058

  Overlap energy of the core charge distribution:               0.00000447763649
  Self energy of the core charge distribution:               -278.09582761455005
  Core Hamiltonian energy:                                     84.32282547166940
  Hartree energy:                                             112.56969742129789
  Exchange-correlation energy:                                -31.88296184019944
  QM/MM Electrostatic energy:                                  -0.33590320615989

  Total energy:                                              -113.42216529030560

  outer SCF iter =    1 RMS gradient =   0.58E-06 energy =       -113.4221652903
  outer SCF loop converged in   1 iterations or   12 steps


 ENERGY| Total FORCE_EVAL ( QMMM ) energy (a.u.):           -239.424389842387029


 *******************************************************************************
 ENSEMBLE TYPE                =                                              NVT
 STEP NUMBER                  =                                                8
 TIME [fs]                    =                                         8.000000
 CONSERVED QUANTITY [hartree] =                              -0.198768989004E+03

                                              INSTANTANEOUS             AVERAGES
 CPU TIME [s]                 =                      112.66               144.35
 ENERGY DRIFT PER ATOM [K]    =          0.221712343684E-01   0.208268812729E+00
 POTENTIAL ENERGY[hartree]    =         -0.239424389842E+03  -0.239098160825E+03
 TOTAL KINETIC ENERGY[hartree]=          0.406313843192E+02   0.403363675052E+02
 QM KINETIC ENERGY[hartree]   =          0.672579977531E-01   0.601868357222E-01
 TOTAL TEMPERATURE[K]         =                     302.642              300.445
 QM TEMPERATURE[K]            =                     643.587              575.924
 *******************************************************************************


  Translating the system in order to center the QM fragment in the QM box.

 Number of electrons:                                                         70
 Number of occupied orbitals:                                                 35
 Number of molecular orbitals:                                                35

 Number of orbital functions:                                                222
 Number of independent orbital functions:                                    222

 Extrapolation method: ASPC


 SCF WAVEFUNCTION OPTIMIZATION

  ----------------------------------- OT ---------------------------------------
  Minimizer      : DIIS                : direct inversion
                                         in the iterative subspace
                                         using   7 DIIS vectors
                                         safer DIIS on
  Preconditioner : FULL_SINGLE_INVERSE : inversion of 
                                         H + eS - 2*(Sc)(c^T*H*c+const)(Sc)^T
  Precond_solver : DEFAULT
  stepsize       :    0.08000000                  energy_gap     :    0.08000000
  eps_taylor     :   0.10000E-15                  max_taylor     :             4
  ----------------------------------- OT ---------------------------------------

  Step     Update method      Time    Convergence         Total energy    Change
  ------------------------------------------------------------------------------
     1 OT DIIS     0.80E-01    4.0     0.00061348      -113.4010158828 -1.13E+02
     2 OT DIIS     0.80E-01    4.9     0.00030096      -113.4011633081 -1.47E-04
     3 OT DIIS     0.80E-01    4.9     0.00017860      -113.4011990011 -3.57E-05
     4 OT DIIS     0.80E-01    4.9     0.00007253      -113.4012140310 -1.50E-05
     5 OT DIIS     0.80E-01    4.9     0.00004435      -113.4012163435 -2.31E-06
     6 OT DIIS     0.80E-01    4.9     0.00001967      -113.4012171686 -8.25E-07
     7 OT DIIS     0.80E-01    4.9     0.00000891      -113.4012173422 -1.74E-07
     8 OT DIIS     0.80E-01    4.9     0.00000543      -113.4012173784 -3.62E-08
     9 OT DIIS     0.80E-01    4.9     0.00000306      -113.4012173889 -1.05E-08
    10 OT DIIS     0.80E-01    4.9     0.00000150      -113.4012173935 -4.60E-09
    11 OT DIIS     0.80E-01    4.9     0.00000083      -113.4012173947 -1.20E-09

  *** SCF run converged in    11 steps ***


  Electronic density on regular grids:        -70.0000000003       -0.0000000003
  Core density on regular grids:               69.9999999957       -0.0000000043
  Total charge density on r-space grids:       -0.0000000046
  Total charge density g-space grids:          -0.0000000046

  Overlap energy of the core charge distribution:               0.00000636600690
  Self energy of the core charge distribution:               -278.09582761455005
  Core Hamiltonian energy:                                     84.38356381066234
  Hartree energy:                                             112.54108973466654
  Exchange-correlation energy:                                -31.90322931197146
  QM/MM Electrostatic energy:                                  -0.32682037948848

  Total energy:                                              -113.40121739467419

  outer SCF iter =    1 RMS gradient =   0.83E-06 energy =       -113.4012173947
  outer SCF loop converged in   1 iterations or   11 steps


 ENERGY| Total FORCE_EVAL ( QMMM ) energy (a.u.):           -239.352435534731512


 *******************************************************************************
 ENSEMBLE TYPE                =                                              NVT
 STEP NUMBER                  =                                                9
 TIME [fs]                    =                                         9.000000
 CONSERVED QUANTITY [hartree] =                              -0.198738848689E+03

                                              INSTANTANEOUS             AVERAGES
 CPU TIME [s]                 =                      107.17               140.22
 ENERGY DRIFT PER ATOM [K]    =          0.358908693214E+00   0.225006577227E+00
 POTENTIAL ENERGY[hartree]    =         -0.239352435535E+03  -0.239126413570E+03
 TOTAL KINETIC ENERGY[hartree]=          0.405862326714E+02   0.403641303015E+02
 QM KINETIC ENERGY[hartree]   =          0.562675452788E-01   0.597513590063E-01
 TOTAL TEMPERATURE[K]         =                     302.306              300.651
 QM TEMPERATURE[K]            =                     538.420              571.756
 *******************************************************************************


  Translating the system in order to center the QM fragment in the QM box.

 Number of electrons:                                                         70
 Number of occupied orbitals:                                                 35
 Number of molecular orbitals:                                                35

 Number of orbital functions:                                                222
 Number of independent orbital functions:                                    222

 Extrapolation method: ASPC


 SCF WAVEFUNCTION OPTIMIZATION

  ----------------------------------- OT ---------------------------------------
  Minimizer      : DIIS                : direct inversion
                                         in the iterative subspace
                                         using   7 DIIS vectors
                                         safer DIIS on
  Preconditioner : FULL_SINGLE_INVERSE : inversion of 
                                         H + eS - 2*(Sc)(c^T*H*c+const)(Sc)^T
  Precond_solver : DEFAULT
  stepsize       :    0.08000000                  energy_gap     :    0.08000000
  eps_taylor     :   0.10000E-15                  max_taylor     :             4
  ----------------------------------- OT ---------------------------------------

  Step     Update method      Time    Convergence         Total energy    Change
  ------------------------------------------------------------------------------
     1 OT DIIS     0.80E-01    4.0     0.00067445      -113.3825467172 -1.13E+02
     2 OT DIIS     0.80E-01    4.9     0.00032704      -113.3826963809 -1.50E-04
     3 OT DIIS     0.80E-01    4.9     0.00017417      -113.3827290226 -3.26E-05
     4 OT DIIS     0.80E-01    4.9     0.00007588      -113.3827446701 -1.56E-05
     5 OT DIIS     0.80E-01    4.9     0.00004068      -113.3827476200 -2.95E-06
     6 OT DIIS     0.80E-01    4.9     0.00002131      -113.3827483355 -7.16E-07
     7 OT DIIS     0.80E-01    4.9     0.00000900      -113.3827485128 -1.77E-07
     8 OT DIIS     0.80E-01    4.9     0.00000506      -113.3827485457 -3.30E-08
     9 OT DIIS     0.80E-01    4.9     0.00000282      -113.3827485552 -9.41E-09
    10 OT DIIS     0.80E-01    4.9     0.00000149      -113.3827485586 -3.44E-09
    11 OT DIIS     0.80E-01    4.9     0.00000078      -113.3827485596 -9.80E-10

  *** SCF run converged in    11 steps ***


  Electronic density on regular grids:        -69.9999999963        0.0000000037
  Core density on regular grids:               69.9999999957       -0.0000000043
  Total charge density on r-space grids:       -0.0000000006
  Total charge density g-space grids:          -0.0000000006

  Overlap energy of the core charge distribution:               0.00000793259233
  Self energy of the core charge distribution:               -278.09582761455005
  Core Hamiltonian energy:                                     84.37130619970623
  Hartree energy:                                             112.56022024417832
  Exchange-correlation energy:                                -31.90124912198939
  QM/MM Electrostatic energy:                                  -0.31720619951159

  Total energy:                                              -113.38274855957414

  outer SCF iter =    1 RMS gradient =   0.78E-06 energy =       -113.3827485596
  outer SCF loop converged in   1 iterations or   11 steps


 ENERGY| Total FORCE_EVAL ( QMMM ) energy (a.u.):           -239.399650458697181


 *******************************************************************************
 ENSEMBLE TYPE                =                                              NVT
 STEP NUMBER                  =                                               10
 TIME [fs]                    =                                        10.000000
 CONSERVED QUANTITY [hartree] =                              -0.198743788218E+03

                                              INSTANTANEOUS             AVERAGES
 CPU TIME [s]                 =                      107.04               136.90
 ENERGY DRIFT PER ATOM [K]    =          0.303722654404E+00   0.232878184945E+00
 POTENTIAL ENERGY[hartree]    =         -0.239399650459E+03  -0.239153737259E+03
 TOTAL KINETIC ENERGY[hartree]=          0.406250516072E+02   0.403902224320E+02
 QM KINETIC ENERGY[hartree]   =          0.489179446095E-01   0.586680175666E-01
 TOTAL TEMPERATURE[K]         =                     302.595              300.846
 QM TEMPERATURE[K]            =                     468.092              561.390
 *******************************************************************************


  Translating the system in order to center the QM fragment in the QM box.

 Number of electrons:                                                         70
 Number of occupied orbitals:                                                 35
 Number of molecular orbitals:                                                35

 Number of orbital functions:                                                222
 Number of independent orbital functions:                                    222

 Extrapolation method: ASPC


 SCF WAVEFUNCTION OPTIMIZATION

  ----------------------------------- OT ---------------------------------------
  Minimizer      : DIIS                : direct inversion
                                         in the iterative subspace
                                         using   7 DIIS vectors
                                         safer DIIS on
  Preconditioner : FULL_SINGLE_INVERSE : inversion of 
                                         H + eS - 2*(Sc)(c^T*H*c+const)(Sc)^T
  Precond_solver : DEFAULT
  stepsize       :    0.08000000                  energy_gap     :    0.08000000
  eps_taylor     :   0.10000E-15                  max_taylor     :             4
  ----------------------------------- OT ---------------------------------------

  Step     Update method      Time    Convergence         Total energy    Change
  ------------------------------------------------------------------------------
     1 OT DIIS     0.80E-01    4.0     0.00063543      -113.3526096283 -1.13E+02
     2 OT DIIS     0.80E-01    4.9     0.00029206      -113.3527523767 -1.43E-04
     3 OT DIIS     0.80E-01    4.9     0.00016668      -113.3527797298 -2.74E-05
     4 OT DIIS     0.80E-01    4.9     0.00007498      -113.3527911581 -1.14E-05
     5 OT DIIS     0.80E-01    4.9     0.00003830      -113.3527934340 -2.28E-06
     6 OT DIIS     0.80E-01    4.9     0.00001659      -113.3527942011 -7.67E-07
     7 OT DIIS     0.80E-01    4.9     0.00000823      -113.3527943230 -1.22E-07
     8 OT DIIS     0.80E-01    4.9     0.00000431      -113.3527943470 -2.40E-08
     9 OT DIIS     0.80E-01    4.9     0.00000220      -113.3527943542 -7.15E-09
    10 OT DIIS     0.80E-01    4.9     0.00000116      -113.3527943565 -2.28E-09
    11 OT DIIS     0.80E-01    4.9     0.00000056      -113.3527943570 -5.04E-10

  *** SCF run converged in    11 steps ***


  Electronic density on regular grids:        -69.9999999962        0.0000000038
  Core density on regular grids:               69.9999999957       -0.0000000043
  Total charge density on r-space grids:       -0.0000000004
  Total charge density g-space grids:          -0.0000000004

  Overlap energy of the core charge distribution:               0.00000702393035
  Self energy of the core charge distribution:               -278.09582761455005
  Core Hamiltonian energy:                                     84.29120414153587
  Hartree energy:                                             112.61973023002078
  Exchange-correlation energy:                                -31.87835997731506
  QM/MM Electrostatic energy:                                  -0.28954816060617

  Total energy:                                              -113.35279435698430

  outer SCF iter =    1 RMS gradient =   0.56E-06 energy =       -113.3527943570
  outer SCF loop converged in   1 iterations or   11 steps


 ENERGY| Total FORCE_EVAL ( QMMM ) energy (a.u.):           -239.513467890521440


 *******************************************************************************
 ENSEMBLE TYPE                =                                              NVT
 STEP NUMBER                  =                                               11
 TIME [fs]                    =                                        11.000000
 CONSERVED QUANTITY [hartree] =                              -0.198758502119E+03

                                              INSTANTANEOUS             AVERAGES
 CPU TIME [s]                 =                      107.53               134.23
 ENERGY DRIFT PER ATOM [K]    =          0.139334144229E+00   0.224374181244E+00
 POTENTIAL ENERGY[hartree]    =         -0.239513467891E+03  -0.239186440044E+03
 TOTAL KINETIC ENERGY[hartree]=          0.407205667142E+02   0.404202537304E+02
 QM KINETIC ENERGY[hartree]   =          0.480773676752E-01   0.577052312128E-01
 TOTAL TEMPERATURE[K]         =                     303.306              301.070
 QM TEMPERATURE[K]            =                     460.049              552.177
 *******************************************************************************


  Translating the system in order to center the QM fragment in the QM box.

 Number of electrons:                                                         70
 Number of occupied orbitals:                                                 35
 Number of molecular orbitals:                                                35

 Number of orbital functions:                                                222
 Number of independent orbital functions:                                    222

 Extrapolation method: ASPC


 SCF WAVEFUNCTION OPTIMIZATION

  ----------------------------------- OT ---------------------------------------
  Minimizer      : DIIS                : direct inversion
                                         in the iterative subspace
                                         using   7 DIIS vectors
                                         safer DIIS on
  Preconditioner : FULL_SINGLE_INVERSE : inversion of 
                                         H + eS - 2*(Sc)(c^T*H*c+const)(Sc)^T
  Precond_solver : DEFAULT
  stepsize       :    0.08000000                  energy_gap     :    0.08000000
  eps_taylor     :   0.10000E-15                  max_taylor     :             4
  ----------------------------------- OT ---------------------------------------

  Step     Update method      Time    Convergence         Total energy    Change
  ------------------------------------------------------------------------------
     1 OT DIIS     0.80E-01    4.0     0.00062060      -113.2659853362 -1.13E+02
     2 OT DIIS     0.80E-01    4.9     0.00031035      -113.2661184103 -1.33E-04
     3 OT DIIS     0.80E-01    4.9     0.00018316      -113.2661463345 -2.79E-05
     4 OT DIIS     0.80E-01    4.9     0.00008815      -113.2661591992 -1.29E-05
     5 OT DIIS     0.80E-01    4.9     0.00004377      -113.2661619683 -2.77E-06
     6 OT DIIS     0.80E-01    4.9     0.00002397      -113.2661628951 -9.27E-07
     7 OT DIIS     0.80E-01    4.9     0.00001207      -113.2661631055 -2.10E-07
     8 OT DIIS     0.80E-01    4.9     0.00000590      -113.2661631574 -5.19E-08
     9 OT DIIS     0.80E-01    4.9     0.00000332      -113.2661631722 -1.48E-08
    10 OT DIIS     0.80E-01    4.9     0.00000205      -113.2661631775 -5.31E-09
    11 OT DIIS     0.80E-01    4.9     0.00000091      -113.2661631793 -1.74E-09

  *** SCF run converged in    11 steps ***


  Electronic density on regular grids:        -69.9999999985        0.0000000015
  Core density on regular grids:               69.9999999958       -0.0000000042
  Total charge density on r-space grids:       -0.0000000027
  Total charge density g-space grids:          -0.0000000027

  Overlap energy of the core charge distribution:               0.00000559973927
  Self energy of the core charge distribution:               -278.09582761455005
  Core Hamiltonian energy:                                     84.18515702391429
  Hartree energy:                                             112.69518448023612
  Exchange-correlation energy:                                -31.84577264560751
  QM/MM Electrostatic energy:                                  -0.20491002299976

  Total energy:                                              -113.26616317926765

  outer SCF iter =    1 RMS gradient =   0.91E-06 energy =       -113.2661631793
  outer SCF loop converged in   1 iterations or   11 steps


 ENERGY| Total FORCE_EVAL ( QMMM ) energy (a.u.):           -239.513185732871534


 *******************************************************************************
 ENSEMBLE TYPE                =                                              NVT
 STEP NUMBER                  =                                               12
 TIME [fs]                    =                                        12.000000
[...]
 -                                                                             -
 -                                DBCSR STATISTICS                             -
 -                                                                             -
 -------------------------------------------------------------------------------
 COUNTER                                    TOTAL       BLAS       SMM       ACC
 flops     5 x     3 x     3                60480       0.0%    100.0%      0.0%
 flops     3 x     3 x     3               160056       0.0%    100.0%      0.0%
 flops    13 x     3 x     3               275184       0.0%    100.0%      0.0%
 flops     5 x    32 x     3               322560       0.0%    100.0%      0.0%
 flops     5 x     3 x    32               322560       0.0%    100.0%      0.0%
 flops     3 x     3 x    13               952848       0.0%    100.0%      0.0%
 flops    13 x    32 x     3              1467648       0.0%    100.0%      0.0%
 flops    13 x     3 x    32              1467648       0.0%    100.0%      0.0%
 flops     3 x     3 x    32              1707264       0.0%    100.0%      0.0%
 flops     3 x    32 x     3              1707264       0.0%    100.0%      0.0%
 flops    32 x     3 x     3              1707264       0.0%    100.0%      0.0%
 flops     3 x     3 x    26              1905696       0.0%    100.0%      0.0%
 flops    49 x     3 x     3              2170602       0.0%    100.0%      0.0%
 flops    54 x     3 x     3              2392092       0.0%    100.0%      0.0%
 flops    57 x     3 x     3              2524986       0.0%    100.0%      0.0%
 flops    62 x     3 x     3              2746476       0.0%    100.0%      0.0%
 flops     5 x     5 x     3              3418200       0.0%    100.0%      0.0%
 flops    49 x     3 x    13              4211844       0.0%    100.0%      0.0%
 flops    54 x     3 x    13              4641624       0.0%    100.0%      0.0%
 flops    57 x     3 x    13              4899492       0.0%    100.0%      0.0%
 flops     3 x     3 x    18              5277312       0.0%    100.0%      0.0%
 flops    62 x     3 x    13              5329272       0.0%    100.0%      0.0%
 flops     5 x    32 x    32              6881280       0.0%    100.0%      0.0%
 flops    49 x     3 x    26              8423688       0.0%    100.0%      0.0%
 flops    54 x     3 x    26              9283248       0.0%    100.0%      0.0%
 flops    57 x     3 x    26              9798984       0.0%    100.0%      0.0%
 flops    32 x     3 x    13              9954048       0.0%    100.0%      0.0%
 flops     3 x    32 x    13             10163712       0.0%    100.0%      0.0%
 flops    62 x     3 x    26             10658544       0.0%    100.0%      0.0%
 flops     5 x     3 x     5             13238400       0.0%    100.0%      0.0%
 flops    13 x     5 x     3             13824720       0.0%    100.0%      0.0%
 flops     5 x    13 x     3             13824720       0.0%    100.0%      0.0%
 flops    32 x    32 x     3             18210816       0.0%    100.0%      0.0%
 flops     3 x    32 x    32             18210816       0.0%    100.0%      0.0%
 flops    32 x     3 x    32             18210816       0.0%    100.0%      0.0%
 flops    32 x     3 x    26             19908096       0.0%    100.0%      0.0%
 flops     3 x    32 x    26             20327424       0.0%    100.0%      0.0%
 flops    49 x     3 x    32             23153088       0.0%    100.0%      0.0%
 flops    49 x    32 x     3             23153088       0.0%    100.0%      0.0%
 flops    49 x     3 x    18             23327136       0.0%    100.0%      0.0%
 flops    54 x    32 x     3             25515648       0.0%    100.0%      0.0%
 flops    54 x     3 x    32             25515648       0.0%    100.0%      0.0%
 flops    54 x     3 x    18             25707456       0.0%    100.0%      0.0%
 flops    57 x     3 x    32             26933184       0.0%    100.0%      0.0%
 flops    57 x    32 x     3             26933184       0.0%    100.0%      0.0%
 flops    57 x     3 x    18             27135648       0.0%    100.0%      0.0%
 flops    62 x     3 x    32             29295744       0.0%    100.0%      0.0%
 flops    62 x    32 x     3             29295744       0.0%    100.0%      0.0%
 flops    62 x     3 x    18             29515968       0.0%    100.0%      0.0%
 flops    13 x    32 x    32             31309824       0.0%    100.0%      0.0%
 flops     5 x     5 x    32             36460800       0.0%    100.0%      0.0%
 flops    49 x    32 x    13             44926336       0.0%    100.0%      0.0%
 flops    54 x    32 x    13             49510656       0.0%    100.0%      0.0%
 flops    57 x    32 x    13             52261248       0.0%    100.0%      0.0%
 flops    32 x     3 x    18             55130112       0.0%    100.0%      0.0%
 flops     3 x    32 x    18             56291328       0.0%    100.0%      0.0%
 flops    62 x    32 x    13             56845568       0.0%    100.0%      0.0%
 flops     5 x     3 x    13             60234720       0.0%    100.0%      0.0%
 flops    13 x     3 x     5             60234720       0.0%    100.0%      0.0%
 flops    13 x    13 x     3             67395510       0.0%    100.0%      0.0%
 flops    49 x    32 x    26             89852672       0.0%    100.0%      0.0%
 flops    54 x    32 x    26             99021312       0.0%    100.0%      0.0%
 flops    57 x    32 x    26            104522496       0.0%    100.0%      0.0%
 flops    32 x    32 x    13            108412928       0.0%    100.0%      0.0%
 flops    62 x    32 x    26            113691136       0.0%    100.0%      0.0%
 flops     5 x    32 x     5            141209600       0.0%    100.0%      0.0%
 flops    13 x     5 x    32            147463680       0.0%    100.0%      0.0%
 flops     5 x    13 x    32            147463680       0.0%    100.0%      0.0%
 flops    32 x    32 x    32            194248704       0.0%    100.0%      0.0%
 flops    32 x    32 x    26            216825856       0.0%    100.0%      0.0%
 flops    49 x    32 x    32            246966272       0.0%    100.0%      0.0%
 flops    49 x    32 x    18            248822784       0.0%    100.0%      0.0%
 flops    54 x    32 x    32            272166912       0.0%    100.0%      0.0%
 flops    13 x     3 x    13            274067976       0.0%    100.0%      0.0%
 flops    54 x    32 x    18            274212864       0.0%    100.0%      0.0%
 flops    57 x    32 x    32            287287296       0.0%    100.0%      0.0%
 flops    57 x    32 x    18            289446912       0.0%    100.0%      0.0%
 flops    62 x    32 x    32            312487936       0.0%    100.0%      0.0%
 flops    62 x    32 x    18            314836992       0.0%    100.0%      0.0%
 flops    32 x    32 x    18            600440832       0.0%    100.0%      0.0%
 flops    13 x    32 x     5            642503680       0.0%    100.0%      0.0%
 flops     5 x    32 x    13            642503680       0.0%    100.0%      0.0%
 flops    13 x    13 x    32            718885440       0.0%    100.0%      0.0%
 flops    13 x    32 x    13           2923391744       0.0%    100.0%      0.0%
 flops inhomo. stacks                           0       0.0%      0.0%      0.0%
 flops total                        10.547403E+09       0.0%    100.0%      0.0%
 flops max/rank                      2.952137E+09       0.0%    100.0%      0.0%
 matmuls inhomo. stacks                         0       0.0%      0.0%      0.0%
 matmuls total                            1873922       0.0%    100.0%      0.0%
 number of processed stacks                846404       0.0%    100.0%      0.0%
 average stack size                                     0.0       2.2       0.0
 marketing flops                    11.610379E+09
 -------------------------------------------------------------------------------
 # multiplications                          10150
 max memory usage/rank               2.190795E+09
 # max total images/rank                        3
 # max 3D layers                                1
 # MPI messages exchanged                21436800
 MPI messages size (bytes):
  total size                        15.992918E+09
  min size                           0.000000E+00
  max size                          15.872000E+03
  average size                     746.049683E+00
 MPI breakdown and total messages size (bytes):
             size <=      128            18107771                  6710616
       128 < size <=     8192             2679677               9128356336
      8192 < size <=    32768              649352               6857744256
     32768 < size <=   131072                   0                        0
    131072 < size <=  4194304                   0                        0
   4194304 < size <= 16777216                   0                        0
  16777216 < size                               0                        0
 -------------------------------------------------------------------------------

 *** WARNING in dbcsr/mm/dbcsr_mm.F:268 :: Using a non-square number of ***
 *** MPI ranks might lead to poor performance.                          ***
 *** Used ranks: 48                                                     ***
 *** Suggested: 49 100                                                  ***

 -------------------------------------------------------------------------------

 MEMORY| Estimated peak process memory [MiB]                                2090

 -------------------------------------------------------------------------------
 -                                                                             -
 -                         MESSAGE PASSING PERFORMANCE                         -
 -                                                                             -
 -------------------------------------------------------------------------------

 ROUTINE             CALLS      AVE VOLUME [Bytes]
 MP_Group              480
 MP_Bcast            10406                1114933.
 MP_Allreduce        84736                 675418.
 MP_Sync                76
 MP_Alltoall         47868               14145363.
 MP_ISendRecv       103400                 163296.
 MP_Wait           1303837
 MP_comm_split          30
 MP_ISend          1003677                  55750.
 MP_IRecv           994404                  56102.
 MP_Memory          760462
 -------------------------------------------------------------------------------


 -------------------------------------------------------------------------------
 -                                                                             -
 -                           R E F E R E N C E S                               -
 -                                                                             -
 -------------------------------------------------------------------------------
 
 CP2K version 6.1, the CP2K developers group (2018).
 CP2K is freely available from https://www.cp2k.org/ .

 Schuett, Ole; Messmer, Peter; Hutter, Juerg; VandeVondele, Joost. 
 Electronic Structure Calculations on Graphics Processing Units, John Wiley & Sons, Ltd, 173-190 (2016). 
 GPU-Accelerated Sparse Matrix-Matrix Multiplication for Linear Scaling Density Functional Theory.
 http://dx.doi.org/10.1002/9781118670712.ch8


 Borstnik, U; VandeVondele, J; Weber, V; Hutter, J. 
 PARALLEL COMPUTING, 40 (5-6), 47-58 (2014). 
 Sparse matrix multiplication: The distributed block-compressed sparse
 row library.
 http://dx.doi.org/10.1016/j.parco.2014.03.012


 Hutter, J; Iannuzzi, M; Schiffmann, F; VandeVondele, J. 
 WILEY INTERDISCIPLINARY REVIEWS-COMPUTATIONAL MOLECULAR SCIENCE, 4 (1), 15-25 (2014). 
 CP2K: atomistic simulations of condensed matter systems.
 http://dx.doi.org/10.1002/wcms.1159


 Laino, T; Mohamed, F; Laio, A; Parrinello, M. 
 JOURNAL OF CHEMICAL THEORY AND COMPUTATION, 1 (6), 1176-1184 (2005). 
 An efficient real space multigrid QM/MM electrostatic coupling.
 http://dx.doi.org/10.1021/ct050123f


 Krack, M. 
 THEORETICAL CHEMISTRY ACCOUNTS, 114 (1-3), 145-152 (2005). 
 Pseudopotentials for H to Kr optimized for gradient-corrected
 exchange-correlation functionals.
 http://dx.doi.org/10.1007/s00214-005-0655-y


 VandeVondele, J; Krack, M; Mohamed, F; Parrinello, M; Chassaing, T;
 Hutter, J. COMPUTER PHYSICS COMMUNICATIONS, 167 (2), 103-128 (2005). 
 QUICKSTEP: Fast and accurate density functional calculations using a
 mixed Gaussian and plane waves approach.
 http://dx.doi.org/10.1016/j.cpc.2004.12.014


 Frigo, M; Johnson, SG. 
 PROCEEDINGS OF THE IEEE, 93 (2), 216-231 (2005). 
 The design and implementation of FFTW3.
 http://dx.doi.org/10.1109/JPROC.2004.840301


 Kolafa, J. 
 JOURNAL OF COMPUTATIONAL CHEMISTRY, 25 (3), 335-342 (2004). 
 Time-reversible always stable predictor-corrector method for molecular dynamics of polarizable molecules.
 http://dx.doi.org/10.1002/jcc.10385


 VandeVondele, J; Hutter, J. 
 JOURNAL OF CHEMICAL PHYSICS, 118 (10), 4365-4369 (2003). 
 An efficient orbital transformation method for electronic structure
 calculations.
 http://dx.doi.org/10.1063/1.1543154


 Hartwigsen, C; Goedecker, S; Hutter, J. 
 PHYSICAL REVIEW B, 58 (7), 3641-3662 (1998). 
 Relativistic separable dual-space Gaussian pseudopotentials from H to Rn.
 http://dx.doi.org/10.1103/PhysRevB.58.3641


 Lippert, G; Hutter, J; Parrinello, M. 
 MOLECULAR PHYSICS, 92 (3), 477-487 (1997). 
 A hybrid Gaussian and plane wave density functional scheme.
 http://dx.doi.org/10.1080/002689797170220


 Goedecker, S; Teter, M; Hutter, J. 
 PHYSICAL REVIEW B, 54 (3), 1703-1710 (1996). 
 Separable dual-space Gaussian pseudopotentials.
 http://dx.doi.org/10.1103/PhysRevB.54.1703


 ESSMANN, U; PERERA, L; BERKOWITZ, ML; DARDEN, T; LEE, H; PEDERSEN, LG. 
 JOURNAL OF CHEMICAL PHYSICS, 103 (19), 8577-8593 (1995). 
 A SMOOTH PARTICLE MESH EWALD METHOD.
 http://dx.doi.org/10.1063/1.470117


 BECKE, AD. PHYSICAL REVIEW A, 38 (6), 3098-3100 (1988). 
 DENSITY-FUNCTIONAL EXCHANGE-ENERGY APPROXIMATION WITH CORRECT
 ASYMPTOTIC-BEHAVIOR.
 http://dx.doi.org/10.1103/PhysRevA.38.3098


 LEE, CT; YANG, WT; PARR, RG. 
 PHYSICAL REVIEW B, 37 (2), 785-789 (1988). 
 DEVELOPMENT OF THE COLLE-SALVETTI CORRELATION-ENERGY FORMULA INTO A
 FUNCTIONAL OF THE ELECTRON-DENSITY.
 http://dx.doi.org/10.1103/PhysRevB.37.785


 NOSE, S. JOURNAL OF CHEMICAL PHYSICS, 81 (1), 511-519 (1984). 
 A UNIFIED FORMULATION OF THE CONSTANT TEMPERATURE MOLECULAR-DYNAMICS
 METHODS.
 http://dx.doi.org/10.1063/1.447334


 NOSE, S. MOLECULAR PHYSICS, 52 (2), 255-268 (1984). 
 A MOLECULAR-DYNAMICS METHOD FOR SIMULATIONS IN THE CANONICAL ENSEMBLE.
 http://dx.doi.org/10.1080/00268978400101201


 -------------------------------------------------------------------------------
 -                                                                             -
 -                                T I M I N G                                  -
 -                                                                             -
 -------------------------------------------------------------------------------
 SUBROUTINE                       CALLS  ASD         SELF TIME        TOTAL TIME
                                MAXIMUM       AVERAGE  MAXIMUM  AVERAGE  MAXIMUM
 CP2K                                 1  1.0    1.043    1.191 4689.399 4689.566
 qs_mol_dyn_low                       1  2.0    0.007    0.011 4677.179 4677.341
 velocity_verlet                     40  3.0    0.079    0.089 4430.236 4430.399
 qs_forces                           41  4.0    0.004    0.005 2742.052 2742.153
 qs_energies                         41  5.0    0.002    0.002 2573.384 2573.478
 scf_env_do_scf                      41  6.0    0.002    0.008 2509.324 2509.413
 scf_env_do_scf_inner_loop          509  6.9    0.015    0.042 2343.064 2343.146
 rebuild_ks_matrix                  550  8.7    0.001    0.002 2163.582 2163.718
 qs_ks_build_kohn_sham_matrix       550  9.7    0.103    0.119 2163.580 2163.716
 pw_transfer                      10901 12.2    0.928    1.367 2077.311 2094.938
 fft_wrap_pw1pw2                   9596 13.3    0.147    0.203 2054.362 2071.732
 fft_wrap_pw1pw2_150               6132 14.5  177.546  181.620 2008.885 2021.730
 qs_ks_update_qs_env                551  7.9    0.004    0.005 1995.117 1995.243
 fft3d_ps                          9596 15.3  900.214  919.549 1563.681 1582.092
 qs_vxc_create                      550 10.7    0.017    0.022 1515.610 1515.744
 xc_vxc_pw_create                   550 11.7   22.574   26.800 1515.593 1515.722
 qmmm_forces                         41  4.0    0.708    0.764 1018.990 1019.028
 qmmm_forces_with_gaussian           41  5.0    1.101    1.263  993.047 1003.770
 qmmm_el_coupling                    41  4.0    0.002    0.003  896.758  908.793
 qmmm_elec_with_gaussian             41  5.0    0.406    0.571  896.456  908.492
 pw_restrict_s3                     123  6.0  647.184  661.708  824.916  836.618
 qmmm_elec_with_gaussian:spline      41  6.0    0.000    0.000  704.660  716.762
 pw_prolongate_s3                   123  7.0  547.183  561.055  704.660  716.762
 xc_rho_set_and_dset_create         550 12.7   20.925   22.848  683.210  701.771
 qs_rho_update_rho                  550  8.0    0.003    0.003  536.416  536.439
 calculate_rho_elec                 550  9.0    4.317   18.225  536.413  536.436
 density_rs2pw                      550 10.0    0.058    0.068  512.723  516.269
 x_to_yz                           5114 16.7  193.279  195.719  389.476  397.136
 mp_alltoall_z22v                  9596 17.3  364.091  382.494  364.091  382.494
 sum_up_and_integrate               550 10.7    5.235    5.333  353.363  353.902
 integrate_v_rspace                 550 11.7    1.551   10.393  348.128  348.647
 potential_pw2rs                    550 12.7    0.182    0.228  336.944  337.410
 yz_to_x                           4482 15.9  105.749  109.517  273.643  283.253
 rs_pw_transfer                    4646 12.1    0.083    0.112  251.527  254.679
 pw_scatter_p                      5114 15.7  175.785  181.408  175.785  181.408
 qs_ks_update_qs_env_forces          41  5.0    0.000    0.000  168.503  168.512
 init_scf_loop                       42  7.0    0.001    0.001  166.192  166.199
 pw_axpy                          12600  8.9  152.195  158.047  152.195  158.047
 pw_zero                          14326  7.5  137.981  144.710  137.981  144.710
 pw_gather_p                       4482 14.9  133.854  141.213  133.854  141.213
 mp_sum_dm3                         205  6.0  126.219  127.050  126.219  127.050
 pw_derive                         3423 13.0  122.261  126.080  122.261  126.080
 qmmm_elec_with_gaussian_low         41  6.0    0.000    0.000  107.505  107.905
 rs_pw_transfer_PW2RS_150           591 14.4   60.873   69.426  102.154  106.482
 qmmm_elec_gaussian_low_R            41  7.0    0.000    0.000   99.912  100.034
 qmmm_elec_with_gaussian_LR          41  8.0   99.912  100.034   99.912  100.034
 -------------------------------------------------------------------------------

 The number of warnings for this run is : 1
 
 -------------------------------------------------------------------------------
  **** **** ******  **  PROGRAM ENDED AT                 2019-03-06 12:19:22.982
 ***** ** ***  *** **   PROGRAM RAN ON                                  nid02142
 **    ****   ******    PROGRAM RAN BY                                  fionabio
 ***** **    ** ** **   PROGRAM PROCESS ID                                 46060
  **** **  *******  **  PROGRAM STOPPED IN /fs3/d118/d118/fionabio/BioExcel2/cp2
                                           k_benchmarks/QMMM/QM/2_nodes/test-1
Experiment data file written:
/fs3/d118/d118/fionabio/BioExcel2/cp2k_benchmarks/QMMM/QM/2_nodes/test-1/cp2k.psmp+samp+46060-2142s.xf
Application 33823272 resources: utime ~212548s, stime ~12637s, Rss ~2219188, inblocks ~3568159, outblocks ~1843187
