#     Step Nr.          Time[fs]        Kin.[a.u.]          Temp[K]            Pot.[a.u.]        Cons Qty[a.u.]        UsedTime[s]
         0            0.000000        40.175949793       299.249817787      -238.947395131      -198.770973482         0.000000000
         1            1.000000        40.154318256       299.088695678      -238.897069870      -198.739504728       208.947255087
         2            2.000000        40.154774924       299.092097165      -238.904509917      -198.743683859        65.456937252
         3            3.000000        40.194516944       299.388114867      -238.959112983      -198.755708774        65.713401416
         4            4.000000        40.216043503       299.548455039      -238.959291386      -198.731485300        65.293847465
         5            5.000000        40.387279102       300.823900230      -239.165101398      -198.763131815        66.226358053
