#     Step Nr.          Time[fs]        Kin.[a.u.]          Temp[K]            Pot.[a.u.]        Cons Qty[a.u.]        UsedTime[s]
         0            0.000000        72.670877073       299.774924990      -354.933816082      -282.262467154         0.000000000
         1            1.000000        72.603794389       299.498201941      -354.835575682      -282.227555059       174.175314515
         2            2.000000        72.569894411       299.358361009      -354.803801932      -282.225855644        62.082095285
         3            3.000000        72.634646100       299.625468461      -354.885459351      -282.238866217        62.448169410
         4            4.000000        72.683371678       299.826466534      -354.921898670      -282.222602912        63.292863038
         5            5.000000        72.783455283       300.239321812      -355.053828609      -282.250377742        63.599151361
