#     Step Nr.          Time[fs]        Kin.[a.u.]          Temp[K]            Pot.[a.u.]        Cons Qty[a.u.]        UsedTime[s]
         0            0.000000        72.670877073       299.774924990      -354.933816081      -282.262467153         0.000000000
         1            1.000000        72.603794131       299.498200879      -354.835575690      -282.227555324       260.007196513
         2            2.000000        72.569893967       299.358359175      -354.803802064      -282.225856221        80.354707796
         3            3.000000        72.634645743       299.625466987      -354.885459590      -282.238866813        80.256609347
         4            4.000000        72.683371376       299.826465291      -354.921898911      -282.222603455       104.864843818
         5            5.000000        72.783454992       300.239320613      -355.053828835      -282.250378260        84.654456793
