#     Step Nr.          Time[fs]        Kin.[a.u.]          Temp[K]            Pot.[a.u.]        Cons Qty[a.u.]        UsedTime[s]
         0            0.000000        43.984410325       299.396680004      -253.053219591      -209.068337410         0.000000000
         1            1.000000        43.870291832       298.619888916      -252.908036710      -209.034371042       259.175311976
         2            2.000000        43.981906629       299.379637639      -253.047482284      -209.059275912        84.498824266
         3            3.000000        44.101811850       300.195818296      -253.178572806      -209.067486556        80.724659205
         4            4.000000        44.145445812       300.492829516      -253.198567689      -209.040804175        82.442533949
         5            5.000000        44.295926711       301.517135202      -253.378752348      -209.067381231        87.889158251
