#     Step Nr.          Time[fs]        Kin.[a.u.]          Temp[K]            Pot.[a.u.]        Cons Qty[a.u.]        UsedTime[s]
         0            0.000000       159.258398355       298.021367480      -663.808464476      -504.549594265         0.000000000
         1            1.000000       159.502160860       298.477521980      -664.119949555      -504.611822633       183.031617479
         2            2.000000       159.789683978       299.015566026      -664.449622271      -504.648416536        67.396950098
         3            3.000000       159.728511248       298.901093062      -664.323205867      -504.577513069        65.697029156
         4            4.000000       159.862727098       299.152252132      -664.523729754      -504.638058453        65.472373895
         5            5.000000       159.776835043       298.991521721      -664.409639916      -504.603979144        64.193634435
