#     Step Nr.          Time[fs]        Kin.[a.u.]          Temp[K]            Pot.[a.u.]        Cons Qty[a.u.]        UsedTime[s]
         0            0.000000       422.425160122       298.806277594     -1576.543507505     -1154.117875528         0.000000000
         1            1.000000       422.191987934       298.641341127     -1576.246637117     -1154.045130236       289.928403294
         2            2.000000       422.631624709       298.952322197     -1576.736362626     -1154.085970905        91.074738467
         3            3.000000       423.233165708       299.377827692     -1577.436929534     -1154.175462978        87.328197661
         4            4.000000       423.043064931       299.243358178     -1577.193542149     -1154.112266740        89.693999312
         5            5.000000       422.594093104       298.925773875     -1576.733583426     -1154.091031784        90.415352851
