 *******************************************************************************
 *                            RESTART INFORMATION                              *
 *******************************************************************************
 *                                                                             *
 *    RESTART FILE NAME: NPT-1_5000.restart                                    *
 *                                                                             *
 * RESTARTED QUANTITIES:                                                       *
 *                       CELL                                                  *
 *                       COORDINATES                                           *
 *                       RANDOM NUMBER GENERATOR                               *
 *                       VELOCITIES                                            *
 *                       MD AVERAGES                                           *
 *                       REAL TIME PROPAGATION                                 *
 *                       PINT BEAD POSITIONS                                   *
 *                       PINT BEAD VELOCITIES                                  *
 *                       PINT NOSE THERMOSTAT                                  *
 *                       PINT GLE THERMOSTAT                                   *
 *                       HELIUM BEAD POSITIONS                                 *
 *                       HELIUM PERMUTATION STATE                              *
 *                       HELIUM FORCES ON SOLUTE                               *
 *                       HELIUM RNG STATE                                      *
 *******************************************************************************

 DBCSR| Multiplication driver                                               XSMM
 DBCSR| Multrec recursion limit                                              512
 DBCSR| Multiplication stack size                                           1000
 DBCSR| Maximum elements for images                                    UNLIMITED
 DBCSR| Multiplicative factor virtual images                                   1
 DBCSR| Multiplication size stacks                                             3
 DBCSR| Number of 3D layers                                               SINGLE
 DBCSR| Use MPI memory allocation                                              T
 DBCSR| Use RMA algorithm                                                      F
 DBCSR| Use Communication thread                                               T
 DBCSR| Communication thread load                                             87


  **** **** ******  **  PROGRAM STARTED AT               2019-02-27 16:17:13.246
 ***** ** ***  *** **   PROGRAM STARTED ON                              nid00248
 **    ****   ******    PROGRAM STARTED BY                              fionabio
 ***** **    ** ** **   PROGRAM PROCESS ID                                 46060
  **** **  *******  **  PROGRAM STARTED IN /fs3/d118/d118/fionabio/BioExcel2/cp2
                                           k_benchmarks/QMMM/MM/8_nodes/test-3

 CP2K| version string:                                          CP2K version 6.1
 CP2K| source code revision number:                                    svn:18464
 CP2K| cp2kflags: omp libint fftw3 libxc elpa=201605 elpa_qr parallel mpi3 scala
 CP2K|            pack xsmm libgrid has_no_shared_glibc max_contr=4 statm_resident plumed2
 CP2K| is freely available from                            https://www.cp2k.org/
 CP2K| Program compiled at                          Fri Feb 15 14:17:25 GMT 2019
 CP2K| Program compiled on                                            eslogin007
 CP2K| Program compiled for                                               ARCHER
 CP2K| Data directory path    /work/d118/d118/fionabio/BioExcel2/cp2k_benchmarks
 CP2K| Input file name                                                    fr.inp

 GLOBAL| Force Environment number                                              1
 GLOBAL| Basis set file name                                           BASIS_SET
 GLOBAL| Potential file name                                           POTENTIAL
 GLOBAL| MM Potential file name                                     MM_POTENTIAL
 GLOBAL| Coordinate file name                                      __STD_INPUT__
 GLOBAL| Method name                                                        CP2K
 GLOBAL| Project name                                                       QMMM
 GLOBAL| Preferred FFT library                                             FFTW3
 GLOBAL| Preferred diagonalization lib.                                       SL
 GLOBAL| Run type                                                             MD
 GLOBAL| All-to-all communication in single precision                          F
 GLOBAL| FFTs using library dependent lengths                                  F
 GLOBAL| Global print level                                                  LOW
 GLOBAL| Total number of message passing processes                           192
 GLOBAL| Number of threads for this process                                    1
 GLOBAL| This output is from process                                           0
 GLOBAL| CPU model name :  Intel(R) Xeon(R) CPU E5-2697 v2 @ 2.70GHz

 MEMORY| system memory details [Kb]
 MEMORY|                        rank 0           min           max       average
 MEMORY| MemTotal             66072152      66072152      66072152      66072152
 MEMORY| MemFree              59920548      59846740      60007544      59953509
 MEMORY| Buffers                     0             0             0             0
 MEMORY| Cached                 290272        272084        290272        274453
 MEMORY| Slab                   272088        265772        272088        268044
 MEMORY| SReclaimable             8724          8316          8724          8559
 MEMORY| MemLikelyFree        60219544      60127396      60288692      60236521



                      ************* ******** ***********   
                     ************* **********************  
                     ****     **** ****      ***********   
                     ******** ****  *******     ****       
                     *******  ****   *******   ****        
                     ****     ****       ****  ****        
                     ****     **** **********  ****        
                      ****     **** ********    ****       
                     FRONTIERS IN SIMULATION TECHNOLOGY    
                                                           
                        C.J. Mundy, S. Balasubramanian,    
                     Ken Bagchi, J. Hutter, Ari Seitsonen  
                      IFW Kuo, T. Laino, J. VandeVondele   
                                 Version 1.0               

                                                           


 EWALD| Summation is done by:                                               SPME
 EWALD| Alpha parameter [       ANGSTROM^-1]                              0.4000
 EWALD| Real Space Cutoff [          ANGSTROM]                            8.4348
 EWALD| G-space max. Miller index                         80        80        80
 EWALD| Spline interpolation order                                             6

 FORCEFIELD| WARNING: A non Critical ForceField parameter is missing! CP2K GOES!
 FORCEFIELD| Non critical parameters are:Urey-Bradley,Torsions,Impropers, Opbends and 1-4
 FORCEFIELD| All missing parameters will not contribute to the potential energy!
 FORCEFIELD| Activate the print key FF_INFO to have a list of missing parameters

 CHARGE_INFO| Total Charge of the Classical System:                    -0.000000

 SPLINE_INFO| Generating 56953 splines for NONBONDED14 interactions 
              Due to 337 different atomic kinds
  ...5695  ...11390  ...17085  ...22780  ...28475  ...34170  ...39865  ...45560  ...51255  ...56950
 SPLINE_INFO| Number of unique splines computed:            137
 SPLINE_INFO| Done

 SPLINE_INFO| Generating 56953 splines for NONBONDED interactions 
              Due to 337 different atomic kinds
  ...5695  ...11390  ...17085  ...22780  ...28475  ...34170  ...39865  ...45560  ...51255  ...56950
 SPLINE_INFO| Number of unique splines computed:            137
 SPLINE_INFO| Done

 *******************************************************************************
 *******************************************************************************
 **                                                                           **
 **     #####                         ##              ##                      **
 **    ##   ##            ##          ##              ##                      **
 **   ##     ##                       ##            ######                    **
 **   ##     ##  ##   ##  ##   #####  ##  ##   ####   ##    #####    #####    **
 **   ##     ##  ##   ##  ##  ##      ## ##   ##      ##   ##   ##  ##   ##   **
 **   ##  ## ##  ##   ##  ##  ##      ####     ###    ##   ######   ######    **
 **    ##  ###   ##   ##  ##  ##      ## ##      ##   ##   ##       ##        **
 **     #######   #####   ##   #####  ##  ##  ####    ##    #####   ##        **
 **           ##                                                    ##        **
 **                                                                           **
 **                                                ... make the atoms dance   **
 **                                                                           **
 **            Copyright (C) by CP2K developers group (2000 - 2018)           **
 **                                                                           **
 *******************************************************************************


 TOTAL NUMBERS AND MAXIMUM NUMBERS

  Total number of            - Atomic kinds:                                   5
                             - Atoms:                                         22
                             - Shell sets:                                    44
                             - Shells:                                        94
                             - Primitive Cartesian functions:                110
                             - Cartesian basis functions:                    236
                             - Spherical basis functions:                    222

  Maximum angular momentum of- Orbital basis functions:                        2
                             - Local part of the GTH pseudopotential:          2
                             - Non-local part of the GTH pseudopotential:      0


 SCF PARAMETERS         Density guess:                                    ATOMIC
                        --------------------------------------------------------
                        max_scf:                                              30
                        max_scf_history:                                       0
                        max_diis:                                              4
                        --------------------------------------------------------
                        eps_scf:                                        1.00E-06
                        eps_scf_history:                                0.00E+00
                        eps_diis:                                       1.00E-01
                        eps_eigval:                                     1.00E-05
                        --------------------------------------------------------
                        level_shift [a.u.]:                                 0.00
                        --------------------------------------------------------
                        Outer loop SCF in use 
                        No variables optimised in outer loop
                        eps_scf                                         1.00E-06
                        max_scf                                               10
                        No outer loop optimization
                        step_size                                       5.00E-01

 *******************************************************************************
 *******************************************************************************
 **                                                                           **
 **             #######  ##     ## ##     ## ##     ##                        **
 **            ##     ## ###   ### ###   ### ###   ###                        **
 **            ##     ## #### #### #### #### #### ####                        **
 **            ##     ## ## ### ## ## ### ## ## ### ##                        **
 **            ##  ## ## ##     ## ##     ## ##     ##                        **
 **            ##    ##  ##     ## ##     ## ##     ##  T.Laino and F.Mohamed **
 **             ##### ## ##     ## ##     ## ##     ##  2005 - 2015           **
 **                                                                           **
 **                                                     Calculation Started.. **
 *******************************************************************************
 *******************************************************************************

 MD| Molecular Dynamics Protocol 
 MD| Ensemble Type                                                           NVT
 MD| Number of Time Steps                                                      5
 MD| Time Step [fs]                                                         1.00
 MD| Temperature [K]                                                      298.00
 MD| Temperature tolerance [K]                                              0.00
 MD| Print MD information every                                        1 step(s)
 MD| File type     Print frequency[steps]                             File names
 MD| Coordinates          100                                     QMMM-pos-1.xyz
 MD| Velocities             1                                     QMMM-vel-1.xyz
 MD| Energies               1                                        QMMM-1.ener
 MD| Dump                1000                                     QMMM-1.restart

 ROT| Rotational Analysis Info 
 ROT| Principal axes and moments of inertia in atomic units:
 ROT|                                1                 2                 3
 ROT| EIGENVALUES            0.725109460E+13   0.798358806E+13   0.827995736E+13
 ROT|      X                     0.999435479       0.031832615       0.010742770
 ROT|      Y                    -0.030723154       0.995363145      -0.091149865
 ROT|      Z                    -0.013594496       0.090768357       0.995779240
 ROT| Numer of Rotovibrational vectors:     6

 Calculation of degrees of freedom
                                                      Number of atoms:    112498
                                 Number of Intramolecular constraints:         0
                                 Number of Intermolecular constraints:         0
                                  Invariants(translation + rotations):         3
                                                   Degrees of freedom:    337491


 Restraints Information
                                  Number of Intramolecular restraints:         0
                                  Number of Intermolecular restraints:         0

 THERMOSTAT| Thermostat Info for PARTICLES
 THERMOSTAT| Type of thermostat                               Nose-Hoover-Chains
 THERMOSTAT| Nose-Hoover-Chain length                                          3
 THERMOSTAT| Nose-Hoover-Chain time constant [  fs]                       100.00
 THERMOSTAT| Order of Yoshida integrator                                       3
 THERMOSTAT| Number of multiple time steps                                     2
 THERMOSTAT| Initial Potential Energy                                   0.000000
 THERMOSTAT| Initial Kinetic Energy                                     0.000472
 THERMOSTAT| End of Thermostat Info for PARTICLES

 ************************** Velocities initialization **************************
 Initial Temperature                                                    298.02 K
 COM velocity:           -0.000000000000     -0.000000000000      0.000000000000
 *******************************************************************************


  Translating the system in order to center the QM fragment in the QM box.

 Spin 1

 Number of electrons:                                                         35
 Number of occupied orbitals:                                                 35
 Number of molecular orbitals:                                                35

 Spin 2

 Number of electrons:                                                         35
 Number of occupied orbitals:                                                 35
 Number of molecular orbitals:                                                35

 Number of orbital functions:                                                222
 Number of independent orbital functions:                                    222

 Extrapolation method: initial_guess


 SCF WAVEFUNCTION OPTIMIZATION

  ----------------------------------- OT ---------------------------------------
  Minimizer      : DIIS                : direct inversion
                                         in the iterative subspace
                                         using   7 DIIS vectors
                                         safer DIIS on
  Preconditioner : FULL_SINGLE_INVERSE : inversion of 
                                         H + eS - 2*(Sc)(c^T*H*c+const)(Sc)^T
  Precond_solver : DEFAULT
  stepsize       :    0.08000000                  energy_gap     :    0.08000000
  eps_taylor     :   0.10000E-15                  max_taylor     :             4
  ----------------------------------- OT ---------------------------------------

  Step     Update method      Time    Convergence         Total energy    Change
  ------------------------------------------------------------------------------
     1 OT DIIS     0.80E-01    2.7     0.04705415      -107.7397333659 -1.08E+02
     2 OT DIIS     0.80E-01    3.2     0.03590525      -110.0671708221 -2.33E+00
     3 OT DIIS     0.80E-01    3.4     0.02733897      -111.9525141438 -1.89E+00
     4 OT DIIS     0.80E-01    3.2     0.01612581      -113.4313880372 -1.48E+00
     5 OT DIIS     0.80E-01    3.3     0.01160980      -113.8586422484 -4.27E-01
     6 OT DIIS     0.80E-01    3.2     0.00703528      -114.2424812862 -3.84E-01
     7 OT DIIS     0.80E-01    3.3     0.00486858      -114.3375335967 -9.51E-02
     8 OT DIIS     0.80E-01    3.6     0.00315889      -114.4159207240 -7.84E-02
     9 OT DIIS     0.80E-01    3.3     0.00204824      -114.4489197095 -3.30E-02
    10 OT DIIS     0.80E-01    3.2     0.00159031      -114.4629516244 -1.40E-02
    11 OT DIIS     0.80E-01    3.3     0.00100847      -114.4745017133 -1.16E-02
    12 OT DIIS     0.80E-01    3.2     0.00071559      -114.4790407152 -4.54E-03
    13 OT DIIS     0.80E-01    3.3     0.00049751      -114.4817786521 -2.74E-03
    14 OT DIIS     0.80E-01    3.3     0.00037108      -114.4830194415 -1.24E-03
    15 OT DIIS     0.80E-01    3.2     0.00027258      -114.4837699610 -7.51E-04
    16 OT DIIS     0.80E-01    3.2     0.00021118      -114.4841647775 -3.95E-04
    17 OT DIIS     0.80E-01    3.2     0.00015159      -114.4844688576 -3.04E-04
    18 OT DIIS     0.80E-01    3.2     0.00011753      -114.4846125579 -1.44E-04
    19 OT DIIS     0.80E-01    3.2     0.00009652      -114.4846916637 -7.91E-05
    20 OT DIIS     0.80E-01    3.2     0.00007861      -114.4847495812 -5.79E-05
    21 OT DIIS     0.80E-01    3.2     0.00006073      -114.4847967889 -4.72E-05
    22 OT DIIS     0.80E-01    3.4     0.00004481      -114.4848297747 -3.30E-05
    23 OT DIIS     0.80E-01    3.2     0.00003536      -114.4848451269 -1.54E-05
    24 OT DIIS     0.80E-01    3.2     0.00002685      -114.4848550496 -9.92E-06
    25 OT DIIS     0.80E-01    3.2     0.00002001      -114.4848609118 -5.86E-06
    26 OT DIIS     0.80E-01    3.3     0.00001593      -114.4848635001 -2.59E-06
    27 OT DIIS     0.80E-01    3.5     0.00001281      -114.4848650170 -1.52E-06
    28 OT DIIS     0.80E-01    3.4     0.00001040      -114.4848659946 -9.78E-07
    29 OT DIIS     0.80E-01    3.4     0.00000745      -114.4848668541 -8.60E-07
    30 OT DIIS     0.80E-01    3.5     0.00000555      -114.4848672356 -3.81E-07

  Leaving inner SCF loop after reaching    30 steps.


  Electronic density on regular grids:        -69.9999999962        0.0000000038
  Core density on regular grids:               69.9999999957       -0.0000000043
  Total charge density on r-space grids:       -0.0000000004
  Total charge density g-space grids:          -0.0000000004

  Overlap energy of the core charge distribution:               0.00000492695253
  Self energy of the core charge distribution:               -278.09582761455005
  Core Hamiltonian energy:                                     84.67948216111839
  Hartree energy:                                             112.33406034703047
  Exchange-correlation energy:                                -31.95117022887445
  QM/MM Electrostatic energy:                                  -1.45141682731101

  Total energy:                                              -114.48486723563414

  outer SCF iter =    1 RMS gradient =   0.56E-05 energy =       -114.4848672356

  ----------------------------------- OT ---------------------------------------
  Minimizer      : DIIS                : direct inversion
                                         in the iterative subspace
                                         using   7 DIIS vectors
                                         safer DIIS on
  Preconditioner : FULL_SINGLE_INVERSE : inversion of 
                                         H + eS - 2*(Sc)(c^T*H*c+const)(Sc)^T
  Precond_solver : DEFAULT
  stepsize       :    0.08000000                  energy_gap     :    0.08000000
  eps_taylor     :   0.10000E-15                  max_taylor     :             4
  ----------------------------------- OT ---------------------------------------

  Step     Update method      Time    Convergence         Total energy    Change
  ------------------------------------------------------------------------------
     1 OT DIIS     0.80E-01    7.0     0.00000815      -114.4848674203 -1.85E-07
     2 OT DIIS     0.80E-01    3.2     0.00000661      -114.4848674949 -7.46E-08
     3 OT DIIS     0.80E-01    3.2     0.00000252      -114.4848676336 -1.39E-07
     4 OT DIIS     0.80E-01    3.1     0.00000147      -114.4848676504 -1.68E-08
     5 OT DIIS     0.80E-01    3.2     0.00000083      -114.4848676551 -4.72E-09

  *** SCF run converged in     5 steps ***


  Electronic density on regular grids:        -69.9999999962        0.0000000038
  Core density on regular grids:               69.9999999957       -0.0000000043
  Total charge density on r-space grids:       -0.0000000004
  Total charge density g-space grids:          -0.0000000004

  Overlap energy of the core charge distribution:               0.00000492695253
  Self energy of the core charge distribution:               -278.09582761455005
  Core Hamiltonian energy:                                     84.67951764786056
  Hartree energy:                                             112.33403264696108
  Exchange-correlation energy:                                -31.95117759352301
  QM/MM Electrostatic energy:                                  -1.45141766880300

  Total energy:                                              -114.48486765510192

  outer SCF iter =    2 RMS gradient =   0.83E-06 energy =       -114.4848676551
  outer SCF loop converged in   2 iterations or   35 steps


  Integrated absolute spin density  :                               0.0000000000
  Ideal and single determinant S**2 :                    0.000000       0.000000

 ENERGY| Total FORCE_EVAL ( QMMM ) energy (a.u.):           -663.808464475117376


 MD_ENERGIES| Initialization proceeding


 ******************************** GO CP2K GO! **********************************
 INITIAL POTENTIAL ENERGY[hartree]     =                     -0.663808464475E+03
 TOTAL INITIAL KINETIC ENERGY[hartree] =                      0.159258398355E+03
 QM INITIAL KINETIC ENERGY[hartree]    =                      0.252062146359E-01
 TOTAL INITIAL TEMPERATURE[K]          =                                 298.021
 QM INITIAL TEMPERATURE[K]             =                                 241.196
 INITIAL VOLUME[bohr^3]                =                      0.766107170929E+07
 INITIAL CELL LNTHS[bohr]   =      0.2119636E+03   0.1942054E+03   0.1861088E+03
 INITIAL CELL ANGLS[deg]    =      0.9000000E+02   0.9000000E+02   0.9000000E+02
 ******************************** GO CP2K GO! **********************************

  Translating the system in order to center the QM fragment in the QM box.

 Spin 1

 Number of electrons:                                                         35
 Number of occupied orbitals:                                                 35
 Number of molecular orbitals:                                                35

 Spin 2

 Number of electrons:                                                         35
 Number of occupied orbitals:                                                 35
 Number of molecular orbitals:                                                35

 Number of orbital functions:                                                222
 Number of independent orbital functions:                                    222

 Extrapolation method: ASPC


 SCF WAVEFUNCTION OPTIMIZATION

  ----------------------------------- OT ---------------------------------------
  Minimizer      : DIIS                : direct inversion
                                         in the iterative subspace
                                         using   7 DIIS vectors
                                         safer DIIS on
  Preconditioner : FULL_SINGLE_INVERSE : inversion of 
                                         H + eS - 2*(Sc)(c^T*H*c+const)(Sc)^T
  Precond_solver : DEFAULT
  stepsize       :    0.08000000                  energy_gap     :    0.08000000
  eps_taylor     :   0.10000E-15                  max_taylor     :             4
  ----------------------------------- OT ---------------------------------------

  Step     Update method      Time    Convergence         Total energy    Change
  ------------------------------------------------------------------------------
     1 OT DIIS     0.80E-01    2.8     0.00066348      -114.3560327058 -1.14E+02
     2 OT DIIS     0.80E-01    3.3     0.00045826      -114.3564831443 -4.50E-04
     3 OT DIIS     0.80E-01    3.3     0.00025722      -114.3568649823 -3.82E-04
     4 OT DIIS     0.80E-01    3.1     0.00011383      -114.3570299550 -1.65E-04
     5 OT DIIS     0.80E-01    3.3     0.00006591      -114.3570566405 -2.67E-05
     6 OT DIIS     0.80E-01    3.2     0.00003397      -114.3570663406 -9.70E-06
     7 OT DIIS     0.80E-01    3.1     0.00001568      -114.3570691796 -2.84E-06
     8 OT DIIS     0.80E-01    3.1     0.00000874      -114.3570696979 -5.18E-07
     9 OT DIIS     0.80E-01    3.1     0.00000437      -114.3570698697 -1.72E-07
    10 OT DIIS     0.80E-01    3.1     0.00000236      -114.3570699133 -4.37E-08
    11 OT DIIS     0.80E-01    3.2     0.00000121      -114.3570699241 -1.08E-08
    12 OT DIIS     0.80E-01    3.1     0.00000070      -114.3570699274 -3.30E-09

  *** SCF run converged in    12 steps ***


  Electronic density on regular grids:        -69.9999999963        0.0000000037
  Core density on regular grids:               69.9999999957       -0.0000000043
  Total charge density on r-space grids:       -0.0000000006
  Total charge density g-space grids:          -0.0000000006

  Overlap energy of the core charge distribution:               0.00000518747236
  Self energy of the core charge distribution:               -278.09582761455005
  Core Hamiltonian energy:                                     84.72764291047361
  Hartree energy:                                             112.29959651877023
  Exchange-correlation energy:                                -31.96614198294415
  QM/MM Electrostatic energy:                                  -1.32234494664410

  Total energy:                                              -114.35706992742209

  outer SCF iter =    1 RMS gradient =   0.70E-06 energy =       -114.3570699274
  outer SCF loop converged in   1 iterations or   12 steps


  Integrated absolute spin density  :                               0.0000000000
  Ideal and single determinant S**2 :                    0.000000      -0.000000

 ENERGY| Total FORCE_EVAL ( QMMM ) energy (a.u.):           -664.119949565698221


 *******************************************************************************
 ENSEMBLE TYPE                =                                              NVT
 STEP NUMBER                  =                                                1
 TIME [fs]                    =                                         1.000000
 CONSERVED QUANTITY [hartree] =                              -0.504611822997E+03

                                              INSTANTANEOUS             AVERAGES
 CPU TIME [s]                 =                      259.73               259.73
 ENERGY DRIFT PER ATOM [K]    =         -0.174672047885E+00   0.000000000000E+00
 POTENTIAL ENERGY[hartree]    =         -0.664119949566E+03  -0.664119949566E+03
 TOTAL KINETIC ENERGY[hartree]=          0.159502160506E+03   0.159502160506E+03
 QM KINETIC ENERGY[hartree]   =          0.262930378490E-01   0.262930378490E-01
 TOTAL TEMPERATURE[K]         =                     298.478              298.478
 QM TEMPERATURE[K]            =                     251.596              251.596
 *******************************************************************************


  Translating the system in order to center the QM fragment in the QM box.

 Spin 1

 Number of electrons:                                                         35
 Number of occupied orbitals:                                                 35
 Number of molecular orbitals:                                                35

 Spin 2

 Number of electrons:                                                         35
 Number of occupied orbitals:                                                 35
 Number of molecular orbitals:                                                35

 Number of orbital functions:                                                222
 Number of independent orbital functions:                                    222

 Extrapolation method: ASPC


 SCF WAVEFUNCTION OPTIMIZATION

  ----------------------------------- OT ---------------------------------------
  Minimizer      : DIIS                : direct inversion
                                         in the iterative subspace
                                         using   7 DIIS vectors
                                         safer DIIS on
  Preconditioner : FULL_SINGLE_INVERSE : inversion of 
                                         H + eS - 2*(Sc)(c^T*H*c+const)(Sc)^T
  Precond_solver : DEFAULT
  stepsize       :    0.08000000                  energy_gap     :    0.08000000
  eps_taylor     :   0.10000E-15                  max_taylor     :             4
  ----------------------------------- OT ---------------------------------------

  Step     Update method      Time    Convergence         Total energy    Change
  ------------------------------------------------------------------------------
     1 OT DIIS     0.80E-01    2.5     0.00044558      -114.2846376888 -1.14E+02
     2 OT DIIS     0.80E-01    3.3     0.00030043      -114.2848394149 -2.02E-04
     3 OT DIIS     0.80E-01    3.3     0.00015826      -114.2850037406 -1.64E-04
     4 OT DIIS     0.80E-01    3.2     0.00006373      -114.2850658414 -6.21E-05
     5 OT DIIS     0.80E-01    3.2     0.00003785      -114.2850736021 -7.76E-06
     6 OT DIIS     0.80E-01    3.2     0.00001950      -114.2850766498 -3.05E-06
     7 OT DIIS     0.80E-01    3.1     0.00000877      -114.2850775882 -9.38E-07
     8 OT DIIS     0.80E-01    3.3     0.00000422      -114.2850776762 -8.80E-08
     9 OT DIIS     0.80E-01    3.3     0.00000231      -114.2850777141 -3.79E-08
    10 OT DIIS     0.80E-01    3.4     0.00000129      -114.2850777283 -1.42E-08
    11 OT DIIS     0.80E-01    3.1     0.00000068      -114.2850777320 -3.71E-09

  *** SCF run converged in    11 steps ***


  Electronic density on regular grids:        -69.9999999972        0.0000000028
  Core density on regular grids:               69.9999999957       -0.0000000043
  Total charge density on r-space grids:       -0.0000000015
  Total charge density g-space grids:          -0.0000000015

  Overlap energy of the core charge distribution:               0.00000493752496
  Self energy of the core charge distribution:               -278.09582761455005
  Core Hamiltonian energy:                                     84.68945045468368
  Hartree energy:                                             112.32277685101531
  Exchange-correlation energy:                                -31.95690322550841
  QM/MM Electrostatic energy:                                  -1.24457913517598

  Total energy:                                              -114.28507773201046

  outer SCF iter =    1 RMS gradient =   0.68E-06 energy =       -114.2850777320
  outer SCF loop converged in   1 iterations or   11 steps


  Integrated absolute spin density  :                               0.0000000000
  Ideal and single determinant S**2 :                    0.000000       0.000000

 ENERGY| Total FORCE_EVAL ( QMMM ) energy (a.u.):           -664.449622466729238


 *******************************************************************************
 ENSEMBLE TYPE                =                                              NVT
 STEP NUMBER                  =                                                2
 TIME [fs]                    =                                         2.000000
 CONSERVED QUANTITY [hartree] =                              -0.504648417368E+03

                                              INSTANTANEOUS             AVERAGES
 CPU TIME [s]                 =                       86.17               172.95
 ENERGY DRIFT PER ATOM [K]    =         -0.277390094456E+00  -0.138695047228E+00
 POTENTIAL ENERGY[hartree]    =         -0.664449622467E+03  -0.664284786016E+03
 TOTAL KINETIC ENERGY[hartree]=          0.159789683343E+03   0.159645921924E+03
 QM KINETIC ENERGY[hartree]   =          0.324458449505E-01   0.293694413997E-01
 TOTAL TEMPERATURE[K]         =                     299.016              298.747
 QM TEMPERATURE[K]            =                     310.472              281.034
 *******************************************************************************


  Translating the system in order to center the QM fragment in the QM box.

 Spin 1

 Number of electrons:                                                         35
 Number of occupied orbitals:                                                 35
 Number of molecular orbitals:                                                35

 Spin 2

 Number of electrons:                                                         35
 Number of occupied orbitals:                                                 35
 Number of molecular orbitals:                                                35

 Number of orbital functions:                                                222
 Number of independent orbital functions:                                    222

 Extrapolation method: ASPC


 SCF WAVEFUNCTION OPTIMIZATION

  ----------------------------------- OT ---------------------------------------
  Minimizer      : DIIS                : direct inversion
                                         in the iterative subspace
                                         using   7 DIIS vectors
                                         safer DIIS on
  Preconditioner : FULL_SINGLE_INVERSE : inversion of 
                                         H + eS - 2*(Sc)(c^T*H*c+const)(Sc)^T
  Precond_solver : DEFAULT
  stepsize       :    0.08000000                  energy_gap     :    0.08000000
  eps_taylor     :   0.10000E-15                  max_taylor     :             4
  ----------------------------------- OT ---------------------------------------

  Step     Update method      Time    Convergence         Total energy    Change
  ------------------------------------------------------------------------------
     1 OT DIIS     0.80E-01    2.5     0.00027490      -114.2417271221 -1.14E+02
     2 OT DIIS     0.80E-01    3.3     0.00016722      -114.2418001626 -7.30E-05
     3 OT DIIS     0.80E-01    3.2     0.00009407      -114.2418448562 -4.47E-05
     4 OT DIIS     0.80E-01    3.1     0.00004065      -114.2418658696 -2.10E-05
     5 OT DIIS     0.80E-01    3.1     0.00002221      -114.2418695383 -3.67E-06
     6 OT DIIS     0.80E-01    3.2     0.00001212      -114.2418705816 -1.04E-06
     7 OT DIIS     0.80E-01    3.3     0.00000552      -114.2418709420 -3.60E-07
     8 OT DIIS     0.80E-01    3.3     0.00000285      -114.2418710113 -6.93E-08
     9 OT DIIS     0.80E-01    3.1     0.00000148      -114.2418710299 -1.85E-08
    10 OT DIIS     0.80E-01    3.2     0.00000084      -114.2418710346 -4.77E-09

  *** SCF run converged in    10 steps ***


  Electronic density on regular grids:        -69.9999999997        0.0000000003
  Core density on regular grids:               69.9999999956       -0.0000000044
  Total charge density on r-space grids:       -0.0000000041
  Total charge density g-space grids:          -0.0000000041

  Overlap energy of the core charge distribution:               0.00000447609658
  Self energy of the core charge distribution:               -278.09582761455005
  Core Hamiltonian energy:                                     84.58020759310492
  Hartree energy:                                             112.39388208160477
  Exchange-correlation energy:                                -31.92765360606617
  QM/MM Electrostatic energy:                                  -1.19248396481598

  Total energy:                                              -114.24187103462592

  outer SCF iter =    1 RMS gradient =   0.84E-06 energy =       -114.2418710346
  outer SCF loop converged in   1 iterations or   10 steps


  Integrated absolute spin density  :                               0.0000000000
  Ideal and single determinant S**2 :                    0.000000       0.000000

 ENERGY| Total FORCE_EVAL ( QMMM ) energy (a.u.):           -664.323206048379234


 *******************************************************************************
 ENSEMBLE TYPE                =                                              NVT
 STEP NUMBER                  =                                                3
 TIME [fs]                    =                                         3.000000
 CONSERVED QUANTITY [hartree] =                              -0.504577514050E+03

                                              INSTANTANEOUS             AVERAGES
 CPU TIME [s]                 =                       83.45               143.12
 ENERGY DRIFT PER ATOM [K]    =         -0.783690419790E-01  -0.118586378812E+00
 POTENTIAL ENERGY[hartree]    =         -0.664323206048E+03  -0.664297592694E+03
 TOTAL KINETIC ENERGY[hartree]=          0.159728510449E+03   0.159673451432E+03
 QM KINETIC ENERGY[hartree]   =          0.417731153229E-01   0.335039993741E-01
 TOTAL TEMPERATURE[K]         =                     298.901              298.798
 QM TEMPERATURE[K]            =                     399.724              320.597
 *******************************************************************************


  Translating the system in order to center the QM fragment in the QM box.

 Spin 1

 Number of electrons:                                                         35
 Number of occupied orbitals:                                                 35
 Number of molecular orbitals:                                                35

 Spin 2

 Number of electrons:                                                         35
 Number of occupied orbitals:                                                 35
 Number of molecular orbitals:                                                35

 Number of orbital functions:                                                222
 Number of independent orbital functions:                                    222

 Extrapolation method: ASPC


 SCF WAVEFUNCTION OPTIMIZATION

  ----------------------------------- OT ---------------------------------------
  Minimizer      : DIIS                : direct inversion
                                         in the iterative subspace
                                         using   7 DIIS vectors
                                         safer DIIS on
  Preconditioner : FULL_SINGLE_INVERSE : inversion of 
                                         H + eS - 2*(Sc)(c^T*H*c+const)(Sc)^T
  Precond_solver : DEFAULT
  stepsize       :    0.08000000                  energy_gap     :    0.08000000
  eps_taylor     :   0.10000E-15                  max_taylor     :             4
  ----------------------------------- OT ---------------------------------------

  Step     Update method      Time    Convergence         Total energy    Change
  ------------------------------------------------------------------------------
     1 OT DIIS     0.80E-01    2.5     0.00020627      -114.2187109776 -1.14E+02
     2 OT DIIS     0.80E-01    3.2     0.00012979      -114.2187527270 -4.17E-05
     3 OT DIIS     0.80E-01    3.3     0.00007022      -114.2187804786 -2.78E-05
     4 OT DIIS     0.80E-01    3.1     0.00003058      -114.2187920879 -1.16E-05
     5 OT DIIS     0.80E-01    3.2     0.00001527      -114.2187942833 -2.20E-06
     6 OT DIIS     0.80E-01    3.3     0.00000770      -114.2187948143 -5.31E-07
     7 OT DIIS     0.80E-01    3.3     0.00000392      -114.2187949478 -1.34E-07
     8 OT DIIS     0.80E-01   25.8     0.00000182      -114.2187949838 -3.60E-08
     9 OT DIIS     0.80E-01    3.5     0.00000097      -114.2187949914 -7.61E-09

  *** SCF run converged in     9 steps ***


  Electronic density on regular grids:        -70.0000000026       -0.0000000026
  Core density on regular grids:               69.9999999957       -0.0000000043
  Total charge density on r-space grids:       -0.0000000069
  Total charge density g-space grids:          -0.0000000069

  Overlap energy of the core charge distribution:               0.00000392457970
  Self energy of the core charge distribution:               -278.09582761455005
  Core Hamiltonian energy:                                     84.44386938969774
  Hartree energy:                                             112.48549531403179
  Exchange-correlation energy:                                -31.89049666757622
  QM/MM Electrostatic energy:                                  -1.16183933758761

  Total energy:                                              -114.21879499140465

  outer SCF iter =    1 RMS gradient =   0.97E-06 energy =       -114.2187949914
  outer SCF loop converged in   1 iterations or    9 steps


  Integrated absolute spin density  :                               0.0000000000
  Ideal and single determinant S**2 :                    0.000000      -0.000000

 ENERGY| Total FORCE_EVAL ( QMMM ) energy (a.u.):           -664.523729993020197


 *******************************************************************************
 ENSEMBLE TYPE                =                                              NVT
 STEP NUMBER                  =                                                4
 TIME [fs]                    =                                         4.000000
 CONSERVED QUANTITY [hartree] =                              -0.504638059522E+03

                                              INSTANTANEOUS             AVERAGES
 CPU TIME [s]                 =                      108.46               134.45
 ENERGY DRIFT PER ATOM [K]    =         -0.248316284424E+00  -0.151018855215E+00
 POTENTIAL ENERGY[hartree]    =         -0.664523729993E+03  -0.664354127018E+03
 TOTAL KINETIC ENERGY[hartree]=          0.159862726269E+03   0.159720770142E+03
 QM KINETIC ENERGY[hartree]   =          0.502823695263E-01   0.376985919122E-01
 TOTAL TEMPERATURE[K]         =                     299.152              298.887
 QM TEMPERATURE[K]            =                     481.148              360.735
 *******************************************************************************


  Translating the system in order to center the QM fragment in the QM box.

 Spin 1

 Number of electrons:                                                         35
 Number of occupied orbitals:                                                 35
 Number of molecular orbitals:                                                35

 Spin 2

 Number of electrons:                                                         35
 Number of occupied orbitals:                                                 35
 Number of molecular orbitals:                                                35

 Number of orbital functions:                                                222
 Number of independent orbital functions:                                    222

 Extrapolation method: ASPC


 SCF WAVEFUNCTION OPTIMIZATION

  ----------------------------------- OT ---------------------------------------
  Minimizer      : DIIS                : direct inversion
                                         in the iterative subspace
                                         using   7 DIIS vectors
                                         safer DIIS on
  Preconditioner : FULL_SINGLE_INVERSE : inversion of 
                                         H + eS - 2*(Sc)(c^T*H*c+const)(Sc)^T
  Precond_solver : DEFAULT
  stepsize       :    0.08000000                  energy_gap     :    0.08000000
  eps_taylor     :   0.10000E-15                  max_taylor     :             4
  ----------------------------------- OT ---------------------------------------

  Step     Update method      Time    Convergence         Total energy    Change
  ------------------------------------------------------------------------------
     1 OT DIIS     0.80E-01    3.0     0.00012913      -114.1972625979 -1.14E+02
     2 OT DIIS     0.80E-01    3.6     0.00008963      -114.1972798346 -1.72E-05
     3 OT DIIS     0.80E-01    3.1     0.00004521      -114.1972956136 -1.58E-05
     4 OT DIIS     0.80E-01    3.1     0.00001785      -114.1973009189 -5.31E-06
     5 OT DIIS     0.80E-01    3.4     0.00000933      -114.1973016267 -7.08E-07
     6 OT DIIS     0.80E-01    3.3     0.00000493      -114.1973018220 -1.95E-07
     7 OT DIIS     0.80E-01    3.4     0.00000235      -114.1973018810 -5.89E-08
     8 OT DIIS     0.80E-01    3.1     0.00000112      -114.1973018942 -1.32E-08
     9 OT DIIS     0.80E-01    3.1     0.00000062      -114.1973018970 -2.84E-09

  *** SCF run converged in     9 steps ***


  Electronic density on regular grids:        -70.0000000043       -0.0000000043
  Core density on regular grids:               69.9999999957       -0.0000000043
  Total charge density on r-space grids:       -0.0000000086
  Total charge density g-space grids:          -0.0000000086

  Overlap energy of the core charge distribution:               0.00000353751530
  Self energy of the core charge distribution:               -278.09582761455005
  Core Hamiltonian energy:                                     84.32385431460003
  Hartree energy:                                             112.56829813069598
  Exchange-correlation energy:                                -31.85815727835674
  QM/MM Electrostatic energy:                                  -1.13547298691050

  Total energy:                                              -114.19730189700600

  outer SCF iter =    1 RMS gradient =   0.62E-06 energy =       -114.1973018970
  outer SCF loop converged in   1 iterations or    9 steps


  Integrated absolute spin density  :                               0.0000000000
  Ideal and single determinant S**2 :                    0.000000       0.000000

 ENERGY| Total FORCE_EVAL ( QMMM ) energy (a.u.):           -664.409640317493881


 *******************************************************************************
 ENSEMBLE TYPE                =                                              NVT
 STEP NUMBER                  =                                                5
 TIME [fs]                    =                                         5.000000
 CONSERVED QUANTITY [hartree] =                              -0.504603980325E+03

                                              INSTANTANEOUS             AVERAGES
 CPU TIME [s]                 =                       80.71               123.70
 ENERGY DRIFT PER ATOM [K]    =         -0.152658173801E+00  -0.151346718932E+00
 POTENTIAL ENERGY[hartree]    =         -0.664409640317E+03  -0.664365229678E+03
 TOTAL KINETIC ENERGY[hartree]=          0.159776834264E+03   0.159731982966E+03
 QM KINETIC ENERGY[hartree]   =          0.563570065443E-01   0.414302748386E-01
 TOTAL TEMPERATURE[K]         =                     298.992              298.908
 QM TEMPERATURE[K]            =                     539.276              396.443
 *******************************************************************************


 -------------------------------------------------------------------------------
 -                                                                             -
 -                                DBCSR STATISTICS                             -
 -                                                                             -
 -------------------------------------------------------------------------------
 COUNTER                                    TOTAL       BLAS       SMM       ACC
 flops     3 x     3 x     3                59940       0.0%    100.0%      0.0%
 flops    13 x     3 x     3                91728       0.0%    100.0%      0.0%
 flops     5 x     3 x     3                95040       0.0%    100.0%      0.0%
 flops    15 x     3 x     3               224640       0.0%    100.0%      0.0%
 flops    13 x    32 x     3               489216       0.0%    100.0%      0.0%
 flops    13 x     3 x    32               489216       0.0%    100.0%      0.0%
 flops     3 x     3 x     5               495360       0.0%    100.0%      0.0%
 flops     3 x     3 x    32               639360       0.0%    100.0%      0.0%
 flops     3 x    32 x     3               639360       0.0%    100.0%      0.0%
 flops    32 x     3 x     3               639360       0.0%    100.0%      0.0%
 flops    15 x     3 x     5               669600       0.0%    100.0%      0.0%
 flops     5 x    32 x     3               906240       0.0%    100.0%      0.0%
 flops     5 x     3 x    32               906240       0.0%    100.0%      0.0%
 flops     5 x     5 x     3              1134000       0.0%    100.0%      0.0%
 flops    39 x     3 x     3              1168128       0.0%    100.0%      0.0%
 flops    31 x     3 x     3              1857024       0.0%    100.0%      0.0%
 flops     3 x     3 x    13              2253888       0.0%    100.0%      0.0%
 flops    15 x     3 x    32              2396160       0.0%    100.0%      0.0%
 flops    15 x    32 x     3              2396160       0.0%    100.0%      0.0%
 flops    15 x     3 x    13              3046680       0.0%    100.0%      0.0%
 flops    39 x     3 x     5              3481920       0.0%    100.0%      0.0%
 flops     5 x     3 x     5              4466400       0.0%    100.0%      0.0%
 flops     5 x    13 x     3              4586400       0.0%    100.0%      0.0%
 flops    13 x     5 x     3              4586400       0.0%    100.0%      0.0%
 flops    32 x     3 x     5              5176320       0.0%    100.0%      0.0%
 flops     3 x    32 x     5              5283840       0.0%    100.0%      0.0%
 flops    31 x     3 x     5              5535360       0.0%    100.0%      0.0%
 flops    32 x    32 x     3              6819840       0.0%    100.0%      0.0%
 flops     3 x    32 x    32              6819840       0.0%    100.0%      0.0%
 flops    32 x     3 x    32              6819840       0.0%    100.0%      0.0%
 flops    15 x    32 x     5              7142400       0.0%    100.0%      0.0%
 flops    13 x    32 x    32             10436608       0.0%    100.0%      0.0%
 flops     5 x    32 x    32             10813440       0.0%    100.0%      0.0%
 flops     5 x     5 x    32             12096000       0.0%    100.0%      0.0%
 flops    39 x     3 x    32             12460032       0.0%    100.0%      0.0%
 flops    39 x    32 x     3             12460032       0.0%    100.0%      0.0%
 flops    39 x     3 x    13             15842736       0.0%    100.0%      0.0%
 flops    13 x     3 x     5             19306560       0.0%    100.0%      0.0%
 flops    31 x    32 x     3             19808256       0.0%    100.0%      0.0%
 flops    31 x     3 x    32             19808256       0.0%    100.0%      0.0%
 flops     5 x     3 x    13             20322120       0.0%    100.0%      0.0%
 flops    13 x    13 x     3             22358700       0.0%    100.0%      0.0%
 flops    32 x     3 x    13             23552256       0.0%    100.0%      0.0%
 flops     3 x    32 x    13             24041472       0.0%    100.0%      0.0%
 flops    31 x     3 x    13             25185888       0.0%    100.0%      0.0%
 flops    15 x    32 x    32             25559040       0.0%    100.0%      0.0%
 flops    15 x    32 x    13             32497920       0.0%    100.0%      0.0%
 flops    39 x    32 x     5             37140480       0.0%    100.0%      0.0%
 flops     5 x    32 x     5             47641600       0.0%    100.0%      0.0%
 flops     5 x    13 x    32             48921600       0.0%    100.0%      0.0%
 flops    13 x     5 x    32             48921600       0.0%    100.0%      0.0%
 flops    32 x    32 x     5             56360960       0.0%    100.0%      0.0%
 flops    31 x    32 x     5             59043840       0.0%    100.0%      0.0%
 flops    32 x    32 x    32             72744960       0.0%    100.0%      0.0%
 flops    13 x     3 x    13             87844848       0.0%    100.0%      0.0%
 flops    39 x    32 x    32            132907008       0.0%    100.0%      0.0%
 flops    39 x    32 x    13            168989184       0.0%    100.0%      0.0%
 flops    13 x    32 x     5            205936640       0.0%    100.0%      0.0%
 flops    31 x    32 x    32            211288064       0.0%    100.0%      0.0%
 flops     5 x    32 x    13            216769280       0.0%    100.0%      0.0%
 flops    13 x    13 x    32            238492800       0.0%    100.0%      0.0%
 flops    32 x    32 x    13            256442368       0.0%    100.0%      0.0%
 flops    31 x    32 x    13            268649472       0.0%    100.0%      0.0%
 flops    13 x    32 x    13            937011712       0.0%    100.0%      0.0%
 flops inhomo. stacks                           0       0.0%      0.0%      0.0%
 flops total                         3.482972E+09       0.0%    100.0%      0.0%
 flops max/rank                    731.088844E+06       0.0%    100.0%      0.0%
 matmuls inhomo. stacks                         0       0.0%      0.0%      0.0%
 matmuls total                             697176       0.0%    100.0%      0.0%
 number of processed stacks                482536       0.0%    100.0%      0.0%
 average stack size                                     0.0       1.4       0.0
 marketing flops                     3.835736E+09
 -------------------------------------------------------------------------------
 # multiplications                           3510
 max memory usage/rank               1.973076E+09
 # max total images/rank                        3
 # max 3D layers                                1
 # MPI messages exchanged                62000640
 MPI messages size (bytes):
  total size                        11.083692E+09
  min size                           0.000000E+00
  max size                           9.984000E+03
  average size                     178.767380E+00
 MPI breakdown and total messages size (bytes):
             size <=      128            57044278                 56938800
       128 < size <=     8192             4907142              10535320016
      8192 < size <=    32768               49220                491412480
     32768 < size <=   131072                   0                        0
    131072 < size <=  4194304                   0                        0
   4194304 < size <= 16777216                   0                        0
  16777216 < size                               0                        0
 -------------------------------------------------------------------------------

 *** WARNING in dbcsr/mm/dbcsr_mm.F:268 :: Using a non-square number of ***
 *** MPI ranks might lead to poor performance.                          ***
 *** Used ranks: 192                                                    ***
 *** Suggested: 196 400                                                 ***

 -------------------------------------------------------------------------------

 MEMORY| Estimated peak process memory [MiB]                                1882

 -------------------------------------------------------------------------------
 -                                                                             -
 -                         MESSAGE PASSING PERFORMANCE                         -
 -                                                                             -
 -------------------------------------------------------------------------------

 ROUTINE             CALLS      AVE VOLUME [Bytes]
 MP_Group              190
 MP_Bcast            11569                3289714.
 MP_Allreduce        37088                 227449.
 MP_Sync                71
 MP_Alltoall         16144                3178558.
 MP_ISendRecv       140576                  58320.
 MP_Wait            914646
 MP_comm_split          60
 MP_ISend           704078                  11203.
 MP_IRecv           701496                  11199.
 MP_Memory          259332
 -------------------------------------------------------------------------------


 -------------------------------------------------------------------------------
 -                                                                             -
 -                           R E F E R E N C E S                               -
 -                                                                             -
 -------------------------------------------------------------------------------
 
 CP2K version 6.1, the CP2K developers group (2018).
 CP2K is freely available from https://www.cp2k.org/ .

 Schuett, Ole; Messmer, Peter; Hutter, Juerg; VandeVondele, Joost. 
 Electronic Structure Calculations on Graphics Processing Units, John Wiley & Sons, Ltd, 173-190 (2016). 
 GPU-Accelerated Sparse Matrix-Matrix Multiplication for Linear Scaling Density Functional Theory.
 http://dx.doi.org/10.1002/9781118670712.ch8


 Borstnik, U; VandeVondele, J; Weber, V; Hutter, J. 
 PARALLEL COMPUTING, 40 (5-6), 47-58 (2014). 
 Sparse matrix multiplication: The distributed block-compressed sparse
 row library.
 http://dx.doi.org/10.1016/j.parco.2014.03.012


 Hutter, J; Iannuzzi, M; Schiffmann, F; VandeVondele, J. 
 WILEY INTERDISCIPLINARY REVIEWS-COMPUTATIONAL MOLECULAR SCIENCE, 4 (1), 15-25 (2014). 
 CP2K: atomistic simulations of condensed matter systems.
 http://dx.doi.org/10.1002/wcms.1159


 Laino, T; Mohamed, F; Laio, A; Parrinello, M. 
 JOURNAL OF CHEMICAL THEORY AND COMPUTATION, 1 (6), 1176-1184 (2005). 
 An efficient real space multigrid QM/MM electrostatic coupling.
 http://dx.doi.org/10.1021/ct050123f


 Krack, M. 
 THEORETICAL CHEMISTRY ACCOUNTS, 114 (1-3), 145-152 (2005). 
 Pseudopotentials for H to Kr optimized for gradient-corrected
 exchange-correlation functionals.
 http://dx.doi.org/10.1007/s00214-005-0655-y


 VandeVondele, J; Krack, M; Mohamed, F; Parrinello, M; Chassaing, T;
 Hutter, J. COMPUTER PHYSICS COMMUNICATIONS, 167 (2), 103-128 (2005). 
 QUICKSTEP: Fast and accurate density functional calculations using a
 mixed Gaussian and plane waves approach.
 http://dx.doi.org/10.1016/j.cpc.2004.12.014


 Frigo, M; Johnson, SG. 
 PROCEEDINGS OF THE IEEE, 93 (2), 216-231 (2005). 
 The design and implementation of FFTW3.
 http://dx.doi.org/10.1109/JPROC.2004.840301


 Kolafa, J. 
 JOURNAL OF COMPUTATIONAL CHEMISTRY, 25 (3), 335-342 (2004). 
 Time-reversible always stable predictor-corrector method for molecular dynamics of polarizable molecules.
 http://dx.doi.org/10.1002/jcc.10385


 VandeVondele, J; Hutter, J. 
 JOURNAL OF CHEMICAL PHYSICS, 118 (10), 4365-4369 (2003). 
 An efficient orbital transformation method for electronic structure
 calculations.
 http://dx.doi.org/10.1063/1.1543154


 Hartwigsen, C; Goedecker, S; Hutter, J. 
 PHYSICAL REVIEW B, 58 (7), 3641-3662 (1998). 
 Relativistic separable dual-space Gaussian pseudopotentials from H to Rn.
 http://dx.doi.org/10.1103/PhysRevB.58.3641


 Lippert, G; Hutter, J; Parrinello, M. 
 MOLECULAR PHYSICS, 92 (3), 477-487 (1997). 
 A hybrid Gaussian and plane wave density functional scheme.
 http://dx.doi.org/10.1080/002689797170220


 Goedecker, S; Teter, M; Hutter, J. 
 PHYSICAL REVIEW B, 54 (3), 1703-1710 (1996). 
 Separable dual-space Gaussian pseudopotentials.
 http://dx.doi.org/10.1103/PhysRevB.54.1703


 ESSMANN, U; PERERA, L; BERKOWITZ, ML; DARDEN, T; LEE, H; PEDERSEN, LG. 
 JOURNAL OF CHEMICAL PHYSICS, 103 (19), 8577-8593 (1995). 
 A SMOOTH PARTICLE MESH EWALD METHOD.
 http://dx.doi.org/10.1063/1.470117


 BECKE, AD. PHYSICAL REVIEW A, 38 (6), 3098-3100 (1988). 
 DENSITY-FUNCTIONAL EXCHANGE-ENERGY APPROXIMATION WITH CORRECT
 ASYMPTOTIC-BEHAVIOR.
 http://dx.doi.org/10.1103/PhysRevA.38.3098


 LEE, CT; YANG, WT; PARR, RG. 
 PHYSICAL REVIEW B, 37 (2), 785-789 (1988). 
 DEVELOPMENT OF THE COLLE-SALVETTI CORRELATION-ENERGY FORMULA INTO A
 FUNCTIONAL OF THE ELECTRON-DENSITY.
 http://dx.doi.org/10.1103/PhysRevB.37.785


 NOSE, S. JOURNAL OF CHEMICAL PHYSICS, 81 (1), 511-519 (1984). 
 A UNIFIED FORMULATION OF THE CONSTANT TEMPERATURE MOLECULAR-DYNAMICS
 METHODS.
 http://dx.doi.org/10.1063/1.447334


 NOSE, S. MOLECULAR PHYSICS, 52 (2), 255-268 (1984). 
 A MOLECULAR-DYNAMICS METHOD FOR SIMULATIONS IN THE CANONICAL ENSEMBLE.
 http://dx.doi.org/10.1080/00268978400101201


 -------------------------------------------------------------------------------
 -                                                                             -
 -                                T I M I N G                                  -
 -                                                                             -
 -------------------------------------------------------------------------------
 SUBROUTINE                       CALLS  ASD         SELF TIME        TOTAL TIME
                                MAXIMUM       AVERAGE  MAXIMUM  AVERAGE  MAXIMUM
 CP2K                                 1  1.0    1.014    1.116  648.755  648.771
 qs_mol_dyn_low                       1  2.0    0.010    0.012  619.370  621.699
 velocity_verlet                      5  3.0    0.046    0.048  450.346  450.367
 qs_forces                            6  3.8    0.001    0.001  329.897  329.905
 qs_energies                          6  4.8    0.000    0.001  315.446  315.452
 scf_env_do_scf                       6  5.8    0.000    0.001  308.860  308.868
 scf_env_do_scf_inner_loop           86  6.6    0.003    0.007  290.892  290.899
 rebuild_ks_matrix                   92  8.4    0.000    0.000  239.876  239.910
 qs_ks_build_kohn_sham_matrix        92  9.4    0.017    0.020  239.876  239.910
 qs_ks_update_qs_env                 93  7.6    0.001    0.001  225.470  225.503
 pw_transfer                       3286 12.1    0.234    0.376  221.461  225.054
 fft_wrap_pw1pw2                   3072 13.2    0.038    0.057  220.320  223.887
 fft_wrap_pw1pw2_150               1944 14.3   12.276   12.716  213.178  216.477
 fft3d_ps                          3072 15.2   63.612   75.395  183.377  187.634
 qs_vxc_create                       92 10.4    0.002    0.004  172.392  172.423
 xc_vxc_pw_create                    92 11.4    2.694    3.066  172.390  172.421
 qmmm_forces                          6  3.8    0.064    0.067  149.756  149.761
 qmmm_forces_with_gaussian            6  4.8    0.069    0.092  147.066  148.768
 qmmm_el_coupling                     6  3.8    0.000    0.000  133.794  135.296
 qmmm_elec_with_gaussian              6  4.8    0.034    0.052  133.784  135.283
 pw_restrict_s3                      18  5.8   93.169   95.704  119.154  120.936
 mp_alltoall_z22v                  3072 17.2  103.465  108.153  103.465  108.153
 qmmm_elec_with_gaussian:spline       6  5.8    0.000    0.000  101.694  103.199
 pw_prolongate_s3                    18  6.8   78.611   80.874  101.693  103.199
 x_to_yz                           1588 16.7   10.134   13.344   72.100   72.684
 qs_rho_update_rho                   92  7.7    0.001    0.001   70.384   70.388
 calculate_rho_elec                 184  8.7    0.421    3.912   70.384   70.387
 xc_rho_set_and_dset_create          92 12.4    2.218    2.992   64.102   67.626
 density_rs2pw                      184  9.7    0.015    0.019   65.351   66.766
 rs_pw_transfer                    1508 11.9    0.022    0.033   53.462   54.390
 sum_up_and_integrate                92 10.4    0.450    0.595   52.356   52.430
 integrate_v_rspace                 184 11.4    0.142    1.878   51.905   52.011
 yz_to_x                           1484 15.6    6.094    6.752   47.594   51.539
 potential_pw2rs                    184 12.4    0.026    0.034   49.374   49.801
 mp_sum_dm3                          30  5.8   27.427   27.492   27.427   27.492
 qmmm_env_create                      1  2.0    6.415    6.507   25.925   25.926
 mp_waitall_1                    873744 15.4   19.146   22.805   19.146   22.805
 pw_axpy                           3236 10.0   19.878   21.084   19.878   21.084
 pw_zero                           2200  7.5   19.618   20.640   19.618   20.640
 fist_init                            1  3.0    0.000    0.001   19.037   19.037
 init_scf_loop                        7  6.7    0.000    0.000   17.926   17.927
 mp_waitany                       41184 13.9   12.954   16.038   12.954   16.038
 rs_pw_transfer_PW2RS_150           190 14.3    6.328    7.378   13.379   14.993
 qmmm_elec_with_gaussian_low          6  5.8    0.000    0.000   14.926   14.965
 pw_scatter_p                      1588 15.7   13.871   14.741   13.871   14.741
 qmmm_elec_gaussian_low_R             6  6.8    0.000    0.000   14.537   14.547
 qmmm_elec_with_gaussian_LR           6  7.8   14.537   14.547   14.537   14.547
 qs_ks_update_qs_env_forces           6  4.8    0.000    0.000   14.423   14.425
 rs_pw_transfer_RS2PW_150           190 11.6    7.407    7.988   12.371   13.358
 -------------------------------------------------------------------------------

 The number of warnings for this run is : 1
 
 -------------------------------------------------------------------------------
  **** **** ******  **  PROGRAM ENDED AT                 2019-02-27 16:28:07.033
 ***** ** ***  *** **   PROGRAM RAN ON                                  nid00248
 **    ****   ******    PROGRAM RAN BY                                  fionabio
 ***** **    ** ** **   PROGRAM PROCESS ID                                 46060
  **** **  *******  **  PROGRAM STOPPED IN /fs3/d118/d118/fionabio/BioExcel2/cp2
                                           k_benchmarks/QMMM/MM/8_nodes/test-3
Application 33705211 resources: utime ~117668s, stime ~7825s, Rss ~2006632, inblocks ~3200484, outblocks ~4665375
