#     Step Nr.          Time[fs]        Kin.[a.u.]          Temp[K]            Pot.[a.u.]        Cons Qty[a.u.]        UsedTime[s]
         0            0.000000       159.258398355       298.021367480      -663.808464475      -504.549594265         0.000000000
         1            1.000000       159.502160506       298.477521317      -664.119949566      -504.611822997       259.730378263
         2            2.000000       159.789683343       299.015564836      -664.449622467      -504.648417368        86.171334819
         3            3.000000       159.728510449       298.901091567      -664.323206048      -504.577514050        83.446850591
         4            4.000000       159.862726269       299.152250582      -664.523729993      -504.638059522       108.464356878
         5            5.000000       159.776834264       298.991520264      -664.409640317      -504.603980325        80.706921807
