#     Step Nr.          Time[fs]        Kin.[a.u.]          Temp[K]            Pot.[a.u.]        Cons Qty[a.u.]        UsedTime[s]
         0            0.000000        40.175949793       299.249817787      -238.947395131      -198.770973482         0.000000000
         1            1.000000        40.154318256       299.088695678      -238.897069869      -198.739504727       166.521864239
         2            2.000000        40.154774924       299.092097165      -238.904509916      -198.743683858        61.129143587
         3            3.000000        40.194516944       299.388114867      -238.959112983      -198.755708773        61.890160816
         4            4.000000        40.216043503       299.548455039      -238.959291386      -198.731485299        61.223668706
         5            5.000000        40.387279102       300.823900230      -239.165101397      -198.763131814        61.214553068
