#     Step Nr.          Time[fs]        Kin.[a.u.]          Temp[K]            Pot.[a.u.]        Cons Qty[a.u.]        UsedTime[s]
         0            0.000000        40.175949793       299.249817787      -484.105023659      -443.928602010         0.000000000
         1            1.000000        40.157374363       299.111459041      -484.052369549      -443.891748117       629.605343917
         2            2.000000        40.163796009       299.159290551      -484.064784179      -443.894935668       167.941410644
         3            3.000000        40.211475753       299.514432242      -484.126299478      -443.905931547       175.781651245
         4            4.000000        40.239271186       299.721466006      -484.141163454      -443.890117339       168.147909796
         5            5.000000        40.412205605       301.009564820      -484.345276354      -443.918355595       174.234600368
