#     Step Nr.          Time[fs]        Kin.[a.u.]          Temp[K]            Pot.[a.u.]        Cons Qty[a.u.]        UsedTime[s]
         0            0.000000       422.425160122       298.806277594     -1576.543507506     -1154.117875529         0.000000000
         1            1.000000       422.191988418       298.641341470     -1576.246637114     -1154.045129747       149.113579678
         2            2.000000       422.631625758       298.952322939     -1576.736362565     -1154.085969794        59.714965717
         3            3.000000       423.233166677       299.377828377     -1577.436929185     -1154.175461659        56.948796695
         4            4.000000       423.043065593       299.243358647     -1577.193541460     -1154.112265388        58.535712861
         5            5.000000       422.594093644       298.925774257     -1576.733582665     -1154.091030480        55.758486200
