CrayPat/X:  Version 6.4.6 Revision 7d0d87c  02/20/17 09:52:37
 *******************************************************************************
 *                            RESTART INFORMATION                              *
 *******************************************************************************
 *                                                                             *
 *    RESTART FILE NAME: NPT-1.restart                                         *
 *                                                                             *
 * RESTARTED QUANTITIES:                                                       *
 *                       CELL                                                  *
 *                       COORDINATES                                           *
 *                       RANDOM NUMBER GENERATOR                               *
 *                       VELOCITIES                                            *
 *                       MD AVERAGES                                           *
 *                       REAL TIME PROPAGATION                                 *
 *                       PINT BEAD POSITIONS                                   *
 *                       PINT BEAD VELOCITIES                                  *
 *                       PINT NOSE THERMOSTAT                                  *
 *                       PINT GLE THERMOSTAT                                   *
 *                       HELIUM BEAD POSITIONS                                 *
 *                       HELIUM PERMUTATION STATE                              *
 *                       HELIUM FORCES ON SOLUTE                               *
 *                       HELIUM RNG STATE                                      *
 *******************************************************************************

 DBCSR| Multiplication driver                                               XSMM
 DBCSR| Multrec recursion limit                                              512
 DBCSR| Multiplication stack size                                           1000
 DBCSR| Maximum elements for images                                    UNLIMITED
 DBCSR| Multiplicative factor virtual images                                   1
 DBCSR| Multiplication size stacks                                             3
 DBCSR| Number of 3D layers                                               SINGLE
 DBCSR| Use MPI memory allocation                                              T
 DBCSR| Use RMA algorithm                                                      F
 DBCSR| Use Communication thread                                               T
 DBCSR| Communication thread load                                             87


  **** **** ******  **  PROGRAM STARTED AT               2019-03-13 11:36:07.968
 ***** ** ***  *** **   PROGRAM STARTED ON                              nid02315
 **    ****   ******    PROGRAM STARTED BY                              fionabio
 ***** **    ** ** **   PROGRAM PROCESS ID                                 17272
  **** **  *******  **  PROGRAM STARTED IN /fs3/d118/d118/fionabio/BioExcel2/cp2
                                           k_benchmarks/QMMM/QM/8_nodes/test-1

 CP2K| version string:                                          CP2K version 6.1
 CP2K| source code revision number:                                    svn:18464
 CP2K| cp2kflags: omp libint fftw3 libxc elpa=201605 elpa_qr parallel mpi3 scala
 CP2K|            pack xsmm libgrid has_no_shared_glibc max_contr=4 statm_resident plumed2
 CP2K| is freely available from                            https://www.cp2k.org/
 CP2K| Program compiled at                          Fri Feb 15 14:30:53 GMT 2019
 CP2K| Program compiled on                                            eslogin007
 CP2K| Program compiled for                                       ARCHER_craypat
 CP2K| Data directory path                     /work/y07/y07/cp2k/6.1.18464/data
 CP2K| Input file name                                       fr_qmmm_40steps.inp

 GLOBAL| Force Environment number                                              1
 GLOBAL| Basis set file name                                           BASIS_SET
 GLOBAL| Potential file name                                           POTENTIAL
 GLOBAL| MM Potential file name                                     MM_POTENTIAL
 GLOBAL| Coordinate file name                                      __STD_INPUT__
 GLOBAL| Method name                                                        CP2K
 GLOBAL| Project name                                                       QMMM
 GLOBAL| Preferred FFT library                                             FFTW3
 GLOBAL| Preferred diagonalization lib.                                       SL
 GLOBAL| Run type                                                             MD
 GLOBAL| All-to-all communication in single precision                          F
 GLOBAL| FFTs using library dependent lengths                                  F
 GLOBAL| Global print level                                                  LOW
 GLOBAL| Total number of message passing processes                           192
 GLOBAL| Number of threads for this process                                    1
 GLOBAL| This output is from process                                           0
 GLOBAL| CPU model name :  Intel(R) Xeon(R) CPU E5-2697 v2 @ 2.70GHz

 MEMORY| system memory details [Kb]
 MEMORY|                        rank 0           min           max       average
 MEMORY| MemTotal             66072152      66072152      66072152      66072152
 MEMORY| MemFree              60830676      60830676      60835804      60833585
 MEMORY| Buffers                     0             0             0             0
 MEMORY| Cached                 285228        280760        285228        281481
 MEMORY| Slab                   273248        272048        273248        272570
 MEMORY| SReclaimable             8532          8512          8952          8651
 MEMORY| MemLikelyFree        61124436      61121284      61125612      61123718



                      ************* ******** ***********   
                     ************* **********************  
                     ****     **** ****      ***********   
                     ******** ****  *******     ****       
                     *******  ****   *******   ****        
                     ****     ****       ****  ****        
                     ****     **** **********  ****        
                      ****     **** ********    ****       
                     FRONTIERS IN SIMULATION TECHNOLOGY    
                                                           
                        C.J. Mundy, S. Balasubramanian,    
                     Ken Bagchi, J. Hutter, Ari Seitsonen  
                      IFW Kuo, T. Laino, J. VandeVondele   
                                 Version 1.0               

                                                           


 EWALD| Summation is done by:                                               SPME
 EWALD| Alpha parameter [       ANGSTROM^-1]                              0.4000
 EWALD| Real Space Cutoff [          ANGSTROM]                            8.4348
 EWALD| G-space max. Miller index                         80        80        80
 EWALD| Spline interpolation order                                             6

 FORCEFIELD| WARNING: A non Critical ForceField parameter is missing! CP2K GOES!
 FORCEFIELD| Non critical parameters are:Urey-Bradley,Torsions,Impropers, Opbends and 1-4
 FORCEFIELD| All missing parameters will not contribute to the potential energy!
 FORCEFIELD| Activate the print key FF_INFO to have a list of missing parameters

 CHARGE_INFO| Total Charge of the Classical System:                     0.000000

 SPLINE_INFO| Generating 56953 splines for NONBONDED14 interactions 
              Due to 337 different atomic kinds
  ...5695  ...11390  ...17085  ...22780  ...28475  ...34170  ...39865  ...45560  ...51255  ...56950
 SPLINE_INFO| Number of unique splines computed:            137
 SPLINE_INFO| Done

 SPLINE_INFO| Generating 56953 splines for NONBONDED interactions 
              Due to 337 different atomic kinds
  ...5695  ...11390  ...17085  ...22780  ...28475  ...34170  ...39865  ...45560  ...51255  ...56950
 SPLINE_INFO| Number of unique splines computed:            137
 SPLINE_INFO| Done

 *******************************************************************************
 *******************************************************************************
 **                                                                           **
 **     #####                         ##              ##                      **
 **    ##   ##            ##          ##              ##                      **
 **   ##     ##                       ##            ######                    **
 **   ##     ##  ##   ##  ##   #####  ##  ##   ####   ##    #####    #####    **
 **   ##     ##  ##   ##  ##  ##      ## ##   ##      ##   ##   ##  ##   ##   **
 **   ##  ## ##  ##   ##  ##  ##      ####     ###    ##   ######   ######    **
 **    ##  ###   ##   ##  ##  ##      ## ##      ##   ##   ##       ##        **
 **     #######   #####   ##   #####  ##  ##  ####    ##    #####   ##        **
 **           ##                                                    ##        **
 **                                                                           **
 **                                                ... make the atoms dance   **
 **                                                                           **
 **            Copyright (C) by CP2K developers group (2000 - 2018)           **
 **                                                                           **
 *******************************************************************************


 TOTAL NUMBERS AND MAXIMUM NUMBERS

  Total number of            - Atomic kinds:                                   5
                             - Atoms:                                         22
                             - Shell sets:                                    44
                             - Shells:                                        94
                             - Primitive Cartesian functions:                110
                             - Cartesian basis functions:                    236
                             - Spherical basis functions:                    222

  Maximum angular momentum of- Orbital basis functions:                        2
                             - Local part of the GTH pseudopotential:          2
                             - Non-local part of the GTH pseudopotential:      0


 SCF PARAMETERS         Density guess:                                    ATOMIC
                        --------------------------------------------------------
                        max_scf:                                              30
                        max_scf_history:                                       0
                        max_diis:                                              4
                        --------------------------------------------------------
                        eps_scf:                                        1.00E-06
                        eps_scf_history:                                0.00E+00
                        eps_diis:                                       1.00E-01
                        eps_eigval:                                     1.00E-05
                        --------------------------------------------------------
                        level_shift [a.u.]:                                 0.00
                        --------------------------------------------------------
                        Outer loop SCF in use 
                        No variables optimised in outer loop
                        eps_scf                                         1.00E-06
                        max_scf                                               10
                        No outer loop optimization
                        step_size                                       5.00E-01

 *******************************************************************************
 *******************************************************************************
 **                                                                           **
 **             #######  ##     ## ##     ## ##     ##                        **
 **            ##     ## ###   ### ###   ### ###   ###                        **
 **            ##     ## #### #### #### #### #### ####                        **
 **            ##     ## ## ### ## ## ### ## ## ### ##                        **
 **            ##  ## ## ##     ## ##     ## ##     ##                        **
 **            ##    ##  ##     ## ##     ## ##     ##  T.Laino and F.Mohamed **
 **             ##### ## ##     ## ##     ## ##     ##  2005 - 2015           **
 **                                                                           **
 **                                                     Calculation Started.. **
 *******************************************************************************
 *******************************************************************************

 MD| Molecular Dynamics Protocol 
 MD| Ensemble Type                                                           NVT
 MD| Number of Time Steps                                                     40
 MD| Time Step [fs]                                                         1.00
 MD| Temperature [K]                                                      298.00
 MD| Temperature tolerance [K]                                              0.00
 MD| Print MD information every                                        1 step(s)
 MD| File type     Print frequency[steps]                             File names
 MD| Coordinates          100                                     QMMM-pos-1.xyz
 MD| Velocities             1                                     QMMM-vel-1.xyz
 MD| Energies               1                                        QMMM-1.ener
 MD| Dump                1000                                     QMMM-1.restart

 ROT| Rotational Analysis Info 
 ROT| Principal axes and moments of inertia in atomic units:
 ROT|                                1                 2                 3
 ROT| EIGENVALUES            0.684222771E+12   0.824984710E+12   0.857051527E+12
 ROT|      X                     0.994031516       0.079445441       0.074764740
 ROT|      Y                     0.053274698      -0.951557830       0.302819259
 ROT|      Z                    -0.095200583       0.297028818       0.950110904
 ROT| Numer of Rotovibrational vectors:     6

 Calculation of degrees of freedom
                                                      Number of atoms:     28264
                                 Number of Intramolecular constraints:         0
                                 Number of Intermolecular constraints:         0
                                  Invariants(translation + rotations):         3
                                                   Degrees of freedom:     84789


 Restraints Information
                                  Number of Intramolecular restraints:         0
                                  Number of Intermolecular restraints:         0

 THERMOSTAT| Thermostat Info for PARTICLES
 THERMOSTAT| Type of thermostat                               Nose-Hoover-Chains
 THERMOSTAT| Nose-Hoover-Chain length                                          3
 THERMOSTAT| Nose-Hoover-Chain time constant [  fs]                       100.00
 THERMOSTAT| Order of Yoshida integrator                                       3
 THERMOSTAT| Number of multiple time steps                                     2
 THERMOSTAT| Initial Potential Energy                                   0.000000
 THERMOSTAT| Initial Kinetic Energy                                     0.000472
 THERMOSTAT| End of Thermostat Info for PARTICLES

 ************************** Velocities initialization **************************
 Initial Temperature                                                    299.25 K
 COM velocity:            0.000000000000      0.000000000000     -0.000000000000
 *******************************************************************************


  Translating the system in order to center the QM fragment in the QM box.

 Number of electrons:                                                         70
 Number of occupied orbitals:                                                 35
 Number of molecular orbitals:                                                35

 Number of orbital functions:                                                222
 Number of independent orbital functions:                                    222

 Extrapolation method: initial_guess


 SCF WAVEFUNCTION OPTIMIZATION

  ----------------------------------- OT ---------------------------------------
  Minimizer      : DIIS                : direct inversion
                                         in the iterative subspace
                                         using   7 DIIS vectors
                                         safer DIIS on
  Preconditioner : FULL_SINGLE_INVERSE : inversion of 
                                         H + eS - 2*(Sc)(c^T*H*c+const)(Sc)^T
  Precond_solver : DEFAULT
  stepsize       :    0.08000000                  energy_gap     :    0.08000000
  eps_taylor     :   0.10000E-15                  max_taylor     :             4
  ----------------------------------- OT ---------------------------------------

  Step     Update method      Time    Convergence         Total energy    Change
  ------------------------------------------------------------------------------
     1 OT DIIS     0.80E-01    1.4     0.09433171      -106.8333347572 -1.07E+02
     2 OT DIIS     0.80E-01    1.6     0.06393255      -110.5411769634 -3.71E+00
     3 OT DIIS     0.80E-01    1.7     0.04243238      -112.0888920432 -1.55E+00
     4 OT DIIS     0.80E-01    1.6     0.02715380      -113.0539942694 -9.65E-01
     5 OT DIIS     0.80E-01    1.7     0.01572954      -113.3029488577 -2.49E-01
     6 OT DIIS     0.80E-01    1.7     0.01071599      -113.4458264751 -1.43E-01
     7 OT DIIS     0.80E-01    1.6     0.00629794      -113.5300324019 -8.42E-02
     8 OT DIIS     0.80E-01    1.6     0.00431986      -113.5617104733 -3.17E-02
     9 OT DIIS     0.80E-01    1.7     0.00291247      -113.5785093940 -1.68E-02
    10 OT DIIS     0.80E-01    1.7     0.00194303      -113.5888737070 -1.04E-02
    11 OT DIIS     0.80E-01    1.7     0.00135279      -113.5938570065 -4.98E-03
    12 OT DIIS     0.80E-01    1.6     0.00098606      -113.5962599420 -2.40E-03
    13 OT DIIS     0.80E-01    1.6     0.00074710      -113.5975585567 -1.30E-03
    14 OT DIIS     0.80E-01    1.7     0.00057301      -113.5983085467 -7.50E-04
    15 OT DIIS     0.80E-01    1.6     0.00045634      -113.5987748133 -4.66E-04
    16 OT DIIS     0.80E-01    1.6     0.00036815      -113.5990281909 -2.53E-04
    17 OT DIIS     0.80E-01    1.7     0.00029398      -113.5992345450 -2.06E-04
    18 OT DIIS     0.80E-01    1.6     0.00024603      -113.5993636450 -1.29E-04
    19 OT DIIS     0.80E-01    1.6     0.00020026      -113.5994665463 -1.03E-04
    20 OT DIIS     0.80E-01    1.7     0.00016277      -113.5995462760 -7.97E-05
    21 OT DIIS     0.80E-01    1.7     0.00013603      -113.5995966230 -5.03E-05
    22 OT DIIS     0.80E-01    1.6     0.00011127      -113.5996303771 -3.38E-05
    23 OT DIIS     0.80E-01    1.7     0.00009145      -113.5996553038 -2.49E-05
    24 OT DIIS     0.80E-01    1.6     0.00007709      -113.5996687865 -1.35E-05
    25 OT DIIS     0.80E-01    1.6     0.00005998      -113.5996795212 -1.07E-05
    26 OT DIIS     0.80E-01    1.7     0.00004923      -113.5996858844 -6.36E-06
    27 OT DIIS     0.80E-01    1.7     0.00003978      -113.5996896503 -3.77E-06
    28 OT DIIS     0.80E-01    1.6     0.00003176      -113.5996924013 -2.75E-06
    29 OT DIIS     0.80E-01    1.6     0.00002657      -113.5996940319 -1.63E-06
    30 OT DIIS     0.80E-01    1.6     0.00002207      -113.5996950004 -9.69E-07

  Leaving inner SCF loop after reaching    30 steps.


  Electronic density on regular grids:        -69.9999999940        0.0000000060
  Core density on regular grids:               69.9999999956       -0.0000000044
  Total charge density on r-space grids:        0.0000000016
  Total charge density g-space grids:           0.0000000016

  Overlap energy of the core charge distribution:               0.00000518703036
  Self energy of the core charge distribution:               -278.09582761455005
  Core Hamiltonian energy:                                     84.58606439349278
  Hartree energy:                                             112.38537079841635
  Exchange-correlation energy:                                -31.92717521183954
  QM/MM Electrostatic energy:                                  -0.54813255297201

  Total energy:                                              -113.59969500042210

  outer SCF iter =    1 RMS gradient =   0.22E-04 energy =       -113.5996950004

  ----------------------------------- OT ---------------------------------------
  Minimizer      : DIIS                : direct inversion
                                         in the iterative subspace
                                         using   7 DIIS vectors
                                         safer DIIS on
  Preconditioner : FULL_SINGLE_INVERSE : inversion of 
                                         H + eS - 2*(Sc)(c^T*H*c+const)(Sc)^T
  Precond_solver : DEFAULT
  stepsize       :    0.08000000                  energy_gap     :    0.08000000
  eps_taylor     :   0.10000E-15                  max_taylor     :             4
  ----------------------------------- OT ---------------------------------------

  Step     Update method      Time    Convergence         Total energy    Change
  ------------------------------------------------------------------------------
     1 OT DIIS     0.80E-01    3.3     0.00004259      -113.5996957060 -7.06E-07
     2 OT DIIS     0.80E-01    1.6     0.00003004      -113.5996965923 -8.86E-07
     3 OT DIIS     0.80E-01    1.6     0.00003268      -113.5996970066 -4.14E-07
     4 OT DIIS     0.80E-01    1.6     0.00001425      -113.5996973479 -3.41E-07
     5 OT DIIS     0.80E-01    1.6     0.00000691      -113.5996974276 -7.96E-08
     6 OT DIIS     0.80E-01    1.6     0.00000384      -113.5996974462 -1.86E-08
     7 OT DIIS     0.80E-01    1.6     0.00000252      -113.5996974511 -4.96E-09
     8 OT DIIS     0.80E-01    1.6     0.00000142      -113.5996974527 -1.56E-09
     9 OT DIIS     0.80E-01    1.6     0.00000071      -113.5996974532 -5.03E-10

  *** SCF run converged in     9 steps ***


  Electronic density on regular grids:        -69.9999999940        0.0000000060
  Core density on regular grids:               69.9999999956       -0.0000000044
  Total charge density on r-space grids:        0.0000000016
  Total charge density g-space grids:           0.0000000016

  Overlap energy of the core charge distribution:               0.00000518703036
  Self energy of the core charge distribution:               -278.09582761455005
  Core Hamiltonian energy:                                     84.58593668573234
  Hartree energy:                                             112.38545557367630
  Exchange-correlation energy:                                -31.92710868674929
  QM/MM Electrostatic energy:                                  -0.54815859833841

  Total energy:                                              -113.59969745319874

  outer SCF iter =    2 RMS gradient =   0.71E-06 energy =       -113.5996974532
  outer SCF loop converged in   2 iterations or   39 steps


 ENERGY| Total FORCE_EVAL ( QMMM ) energy (a.u.):           -238.947395130609266


 MD_ENERGIES| Initialization proceeding


 ******************************** GO CP2K GO! **********************************
 INITIAL POTENTIAL ENERGY[hartree]     =                     -0.238947395131E+03
 TOTAL INITIAL KINETIC ENERGY[hartree] =                      0.401759497934E+02
 QM INITIAL KINETIC ENERGY[hartree]    =                      0.344042003399E-01
 TOTAL INITIAL TEMPERATURE[K]          =                                 299.250
 QM INITIAL TEMPERATURE[K]             =                                 329.211
 INITIAL VOLUME[bohr^3]                =                      0.200731366996E+07
 INITIAL CELL LNTHS[bohr]   =      0.1406963E+03   0.1233340E+03   0.1156777E+03
 INITIAL CELL ANGLS[deg]    =      0.9000000E+02   0.9000000E+02   0.9000000E+02
 ******************************** GO CP2K GO! **********************************

  Translating the system in order to center the QM fragment in the QM box.

 Number of electrons:                                                         70
 Number of occupied orbitals:                                                 35
 Number of molecular orbitals:                                                35

 Number of orbital functions:                                                222
 Number of independent orbital functions:                                    222

 Extrapolation method: ASPC


 SCF WAVEFUNCTION OPTIMIZATION

  ----------------------------------- OT ---------------------------------------
  Minimizer      : DIIS                : direct inversion
                                         in the iterative subspace
                                         using   7 DIIS vectors
                                         safer DIIS on
  Preconditioner : FULL_SINGLE_INVERSE : inversion of 
                                         H + eS - 2*(Sc)(c^T*H*c+const)(Sc)^T
  Precond_solver : DEFAULT
  stepsize       :    0.08000000                  energy_gap     :    0.08000000
  eps_taylor     :   0.10000E-15                  max_taylor     :             4
  ----------------------------------- OT ---------------------------------------

  Step     Update method      Time    Convergence         Total energy    Change
  ------------------------------------------------------------------------------
     1 OT DIIS     0.80E-01    1.3     0.00159905      -113.6446974687 -1.14E+02
     2 OT DIIS     0.80E-01    1.6     0.00087491      -113.6457301188 -1.03E-03
     3 OT DIIS     0.80E-01    1.6     0.00063638      -113.6460094883 -2.79E-04
     4 OT DIIS     0.80E-01    1.6     0.00043615      -113.6461453961 -1.36E-04
     5 OT DIIS     0.80E-01    1.7     0.00019627      -113.6461803698 -3.50E-05
     6 OT DIIS     0.80E-01    1.6     0.00008842      -113.6461910410 -1.07E-05
     7 OT DIIS     0.80E-01    1.6     0.00005115      -113.6461937495 -2.71E-06
     8 OT DIIS     0.80E-01    1.6     0.00002894      -113.6461944612 -7.12E-07
     9 OT DIIS     0.80E-01    1.6     0.00001709      -113.6461946196 -1.58E-07
    10 OT DIIS     0.80E-01    1.6     0.00000753      -113.6461946849 -6.52E-08
    11 OT DIIS     0.80E-01    1.6     0.00000504      -113.6461947022 -1.74E-08
    12 OT DIIS     0.80E-01    1.6     0.00000322      -113.6461947085 -6.23E-09
    13 OT DIIS     0.80E-01    1.6     0.00000227      -113.6461947102 -1.72E-09
    14 OT DIIS     0.80E-01    1.6     0.00000134      -113.6461947109 -7.67E-10
    15 OT DIIS     0.80E-01    1.6     0.00000068      -113.6461947113 -3.39E-10

  *** SCF run converged in    15 steps ***


  Electronic density on regular grids:        -69.9999999905        0.0000000095
  Core density on regular grids:               69.9999999957       -0.0000000043
  Total charge density on r-space grids:        0.0000000051
  Total charge density g-space grids:           0.0000000051

  Overlap energy of the core charge distribution:               0.00000391681808
  Self energy of the core charge distribution:               -278.09582761455005
  Core Hamiltonian energy:                                     84.48987366691404
  Hartree energy:                                             112.44750308310107
  Exchange-correlation energy:                                -31.90043511878470
  QM/MM Electrostatic energy:                                  -0.58731264478349

  Total energy:                                              -113.64619471128508

  outer SCF iter =    1 RMS gradient =   0.68E-06 energy =       -113.6461947113
  outer SCF loop converged in   1 iterations or   15 steps


 ENERGY| Total FORCE_EVAL ( QMMM ) energy (a.u.):           -238.897069869102722


 *******************************************************************************
 ENSEMBLE TYPE                =                                              NVT
 STEP NUMBER                  =                                                1
 TIME [fs]                    =                                         1.000000
 CONSERVED QUANTITY [hartree] =                              -0.198739504727E+03

                                              INSTANTANEOUS             AVERAGES
 CPU TIME [s]                 =                      181.76               181.76
 ENERGY DRIFT PER ATOM [K]    =          0.351579212879E+00   0.000000000000E+00
 POTENTIAL ENERGY[hartree]    =         -0.238897069869E+03  -0.238897069869E+03
 TOTAL KINETIC ENERGY[hartree]=          0.401543182555E+02   0.401543182555E+02
 QM KINETIC ENERGY[hartree]   =          0.420548904279E-01   0.420548904279E-01
 TOTAL TEMPERATURE[K]         =                     299.089              299.089
 QM TEMPERATURE[K]            =                     402.420              402.420
 *******************************************************************************


  Translating the system in order to center the QM fragment in the QM box.

 Number of electrons:                                                         70
 Number of occupied orbitals:                                                 35
 Number of molecular orbitals:                                                35

 Number of orbital functions:                                                222
 Number of independent orbital functions:                                    222

 Extrapolation method: ASPC


 SCF WAVEFUNCTION OPTIMIZATION

  ----------------------------------- OT ---------------------------------------
  Minimizer      : DIIS                : direct inversion
                                         in the iterative subspace
                                         using   7 DIIS vectors
                                         safer DIIS on
  Preconditioner : FULL_SINGLE_INVERSE : inversion of 
                                         H + eS - 2*(Sc)(c^T*H*c+const)(Sc)^T
  Precond_solver : DEFAULT
  stepsize       :    0.08000000                  energy_gap     :    0.08000000
  eps_taylor     :   0.10000E-15                  max_taylor     :             4
  ----------------------------------- OT ---------------------------------------

  Step     Update method      Time    Convergence         Total energy    Change
  ------------------------------------------------------------------------------
     1 OT DIIS     0.80E-01    1.3     0.00054402      -113.6320005569 -1.14E+02
     2 OT DIIS     0.80E-01    1.7     0.00029588      -113.6321262309 -1.26E-04
     3 OT DIIS     0.80E-01    1.6     0.00022178      -113.6321616582 -3.54E-05
     4 OT DIIS     0.80E-01    1.6     0.00007941      -113.6321785109 -1.69E-05
     5 OT DIIS     0.80E-01    1.6     0.00004092      -113.6321814561 -2.95E-06
     6 OT DIIS     0.80E-01    1.6     0.00002618      -113.6321821571 -7.01E-07
     7 OT DIIS     0.80E-01    1.6     0.00001281      -113.6321823414 -1.84E-07
     8 OT DIIS     0.80E-01    1.6     0.00000784      -113.6321823837 -4.23E-08
     9 OT DIIS     0.80E-01    1.6     0.00000375      -113.6321823906 -6.86E-09
    10 OT DIIS     0.80E-01    1.6     0.00000224      -113.6321823952 -4.59E-09
    11 OT DIIS     0.80E-01    1.7     0.00000140      -113.6321823967 -1.58E-09
    12 OT DIIS     0.80E-01    1.6     0.00000087      -113.6321823972 -4.66E-10

  *** SCF run converged in    12 steps ***


  Electronic density on regular grids:        -69.9999999928        0.0000000072
  Core density on regular grids:               69.9999999958       -0.0000000042
  Total charge density on r-space grids:        0.0000000030
  Total charge density g-space grids:           0.0000000030

  Overlap energy of the core charge distribution:               0.00000342752676
  Self energy of the core charge distribution:               -278.09582761455005
  Core Hamiltonian energy:                                     84.37238233459081
  Hartree energy:                                             112.52757642470357
  Exchange-correlation energy:                                -31.86837291566242
  QM/MM Electrostatic energy:                                  -0.56794405382143

  Total energy:                                              -113.63218239721272

  outer SCF iter =    1 RMS gradient =   0.87E-06 energy =       -113.6321823972
  outer SCF loop converged in   1 iterations or   12 steps


 ENERGY| Total FORCE_EVAL ( QMMM ) energy (a.u.):           -238.904509916319512


 *******************************************************************************
 ENSEMBLE TYPE                =                                              NVT
 STEP NUMBER                  =                                                2
 TIME [fs]                    =                                         2.000000
 CONSERVED QUANTITY [hartree] =                              -0.198743683858E+03

                                              INSTANTANEOUS             AVERAGES
 CPU TIME [s]                 =                       65.35               123.56
 ENERGY DRIFT PER ATOM [K]    =          0.304888594972E+00   0.152444297486E+00
 POTENTIAL ENERGY[hartree]    =         -0.238904509916E+03  -0.238900789893E+03
 TOTAL KINETIC ENERGY[hartree]=          0.401547749240E+02   0.401545465898E+02
 QM KINETIC ENERGY[hartree]   =          0.486371069970E-01   0.453459987124E-01
 TOTAL TEMPERATURE[K]         =                     299.092              299.090
 QM TEMPERATURE[K]            =                     465.405              433.913
 *******************************************************************************


  Translating the system in order to center the QM fragment in the QM box.

 Number of electrons:                                                         70
 Number of occupied orbitals:                                                 35
 Number of molecular orbitals:                                                35

 Number of orbital functions:                                                222
 Number of independent orbital functions:                                    222

 Extrapolation method: ASPC


 SCF WAVEFUNCTION OPTIMIZATION

  ----------------------------------- OT ---------------------------------------
  Minimizer      : DIIS                : direct inversion
                                         in the iterative subspace
                                         using   7 DIIS vectors
                                         safer DIIS on
  Preconditioner : FULL_SINGLE_INVERSE : inversion of 
                                         H + eS - 2*(Sc)(c^T*H*c+const)(Sc)^T
  Precond_solver : DEFAULT
  stepsize       :    0.08000000                  energy_gap     :    0.08000000
  eps_taylor     :   0.10000E-15                  max_taylor     :             4
  ----------------------------------- OT ---------------------------------------

  Step     Update method      Time    Convergence         Total energy    Change
  ------------------------------------------------------------------------------
     1 OT DIIS     0.80E-01    1.3     0.00067753      -113.6038610223 -1.14E+02
     2 OT DIIS     0.80E-01    1.6     0.00039394      -113.6039996257 -1.39E-04
     3 OT DIIS     0.80E-01    1.7     0.00020801      -113.6040346404 -3.50E-05
     4 OT DIIS     0.80E-01    1.6     0.00011975      -113.6040509600 -1.63E-05
     5 OT DIIS     0.80E-01    1.6     0.00008040      -113.6040545254 -3.57E-06
     6 OT DIIS     0.80E-01    1.6     0.00003143      -113.6040560799 -1.55E-06
     7 OT DIIS     0.80E-01    1.6     0.00001873      -113.6040564563 -3.76E-07
     8 OT DIIS     0.80E-01    1.6     0.00001048      -113.6040565180 -6.16E-08
     9 OT DIIS     0.80E-01    1.6     0.00000455      -113.6040565622 -4.43E-08
    10 OT DIIS     0.80E-01    1.6     0.00000248      -113.6040565653 -3.02E-09
    11 OT DIIS     0.80E-01    1.6     0.00000135      -113.6040565652  4.08E-11
    12 OT DIIS     0.80E-01    1.7     0.00000085      -113.6040565660 -7.92E-10

  *** SCF run converged in    12 steps ***


  Electronic density on regular grids:        -69.9999999970        0.0000000030
  Core density on regular grids:               69.9999999958       -0.0000000042
  Total charge density on r-space grids:       -0.0000000013
  Total charge density g-space grids:          -0.0000000013

  Overlap energy of the core charge distribution:               0.00000355017111
  Self energy of the core charge distribution:               -278.09582761455005
  Core Hamiltonian energy:                                     84.27214984856114
  Hartree energy:                                             112.59934313778234
  Exchange-correlation energy:                                -31.84259539671154
  QM/MM Electrostatic energy:                                  -0.53713009126078

  Total energy:                                              -113.60405656600777

  outer SCF iter =    1 RMS gradient =   0.85E-06 energy =       -113.6040565660
  outer SCF loop converged in   1 iterations or   12 steps


 ENERGY| Total FORCE_EVAL ( QMMM ) energy (a.u.):           -238.959112982852105


 *******************************************************************************
 ENSEMBLE TYPE                =                                              NVT
 STEP NUMBER                  =                                                3
 TIME [fs]                    =                                         3.000000
 CONSERVED QUANTITY [hartree] =                              -0.198755708773E+03

                                              INSTANTANEOUS             AVERAGES
 CPU TIME [s]                 =                       65.34               104.15
 ENERGY DRIFT PER ATOM [K]    =          0.170542313843E+00   0.158476969605E+00
 POTENTIAL ENERGY[hartree]    =         -0.238959112983E+03  -0.238920230923E+03
 TOTAL KINETIC ENERGY[hartree]=          0.401945169444E+02   0.401678700413E+02
 QM KINETIC ENERGY[hartree]   =          0.529995683754E-01   0.478971886001E-01
 TOTAL TEMPERATURE[K]         =                     299.388              299.190
 QM TEMPERATURE[K]            =                     507.149              458.325
 *******************************************************************************


  Translating the system in order to center the QM fragment in the QM box.

 Number of electrons:                                                         70
 Number of occupied orbitals:                                                 35
 Number of molecular orbitals:                                                35

 Number of orbital functions:                                                222
 Number of independent orbital functions:                                    222

 Extrapolation method: ASPC


 SCF WAVEFUNCTION OPTIMIZATION

  ----------------------------------- OT ---------------------------------------
  Minimizer      : DIIS                : direct inversion
                                         in the iterative subspace
                                         using   7 DIIS vectors
                                         safer DIIS on
  Preconditioner : FULL_SINGLE_INVERSE : inversion of 
                                         H + eS - 2*(Sc)(c^T*H*c+const)(Sc)^T
  Precond_solver : DEFAULT
  stepsize       :    0.08000000                  energy_gap     :    0.08000000
  eps_taylor     :   0.10000E-15                  max_taylor     :             4
  ----------------------------------- OT ---------------------------------------

  Step     Update method      Time    Convergence         Total energy    Change
  ------------------------------------------------------------------------------
     1 OT DIIS     0.80E-01    1.3     0.00088390      -113.5576141814 -1.14E+02
     2 OT DIIS     0.80E-01    1.6     0.00045446      -113.5578584978 -2.44E-04
     3 OT DIIS     0.80E-01    1.7     0.00026005      -113.5579054307 -4.69E-05
     4 OT DIIS     0.80E-01    1.6     0.00014501      -113.5579252857 -1.99E-05
     5 OT DIIS     0.80E-01    1.6     0.00009051      -113.5579302725 -4.99E-06
     6 OT DIIS     0.80E-01    1.6     0.00004233      -113.5579323795 -2.11E-06
     7 OT DIIS     0.80E-01    1.6     0.00002317      -113.5579331357 -7.56E-07
     8 OT DIIS     0.80E-01    1.6     0.00001218      -113.5579332514 -1.16E-07
     9 OT DIIS     0.80E-01    1.6     0.00000589      -113.5579332915 -4.00E-08
    10 OT DIIS     0.80E-01    1.6     0.00000322      -113.5579333057 -1.42E-08
    11 OT DIIS     0.80E-01    1.6     0.00000152      -113.5579333100 -4.29E-09
    12 OT DIIS     0.80E-01    1.7     0.00000090      -113.5579333109 -9.54E-10

  *** SCF run converged in    12 steps ***


  Electronic density on regular grids:        -69.9999999986        0.0000000014
  Core density on regular grids:               69.9999999958       -0.0000000042
  Total charge density on r-space grids:       -0.0000000029
  Total charge density g-space grids:          -0.0000000029

  Overlap energy of the core charge distribution:               0.00000370874361
  Self energy of the core charge distribution:               -278.09582761455005
  Core Hamiltonian energy:                                     84.20221467552332
  Hartree energy:                                             112.64872682582903
  Exchange-correlation energy:                                -31.82686257260804
  QM/MM Electrostatic energy:                                  -0.48618833384714

  Total energy:                                              -113.55793331090925

  outer SCF iter =    1 RMS gradient =   0.90E-06 energy =       -113.5579333109
  outer SCF loop converged in   1 iterations or   12 steps


 ENERGY| Total FORCE_EVAL ( QMMM ) energy (a.u.):           -238.959291385890367


 *******************************************************************************
 ENSEMBLE TYPE                =                                              NVT
 STEP NUMBER                  =                                                4
 TIME [fs]                    =                                         4.000000
 CONSERVED QUANTITY [hartree] =                              -0.198731485299E+03

                                              INSTANTANEOUS             AVERAGES
 CPU TIME [s]                 =                       65.25                94.43
 ENERGY DRIFT PER ATOM [K]    =          0.441174883782E+00   0.229151448149E+00
 POTENTIAL ENERGY[hartree]    =         -0.238959291386E+03  -0.238929996039E+03
 TOTAL KINETIC ENERGY[hartree]=          0.402160435029E+02   0.401799134067E+02
 QM KINETIC ENERGY[hartree]   =          0.582423778688E-01   0.504834859173E-01
 TOTAL TEMPERATURE[K]         =                     299.548              299.279
 QM TEMPERATURE[K]            =                     557.317              483.073
 *******************************************************************************


  Translating the system in order to center the QM fragment in the QM box.

 Number of electrons:                                                         70
 Number of occupied orbitals:                                                 35
 Number of molecular orbitals:                                                35

 Number of orbital functions:                                                222
 Number of independent orbital functions:                                    222

 Extrapolation method: ASPC


 SCF WAVEFUNCTION OPTIMIZATION

  ----------------------------------- OT ---------------------------------------
  Minimizer      : DIIS                : direct inversion
                                         in the iterative subspace
                                         using   7 DIIS vectors
                                         safer DIIS on
  Preconditioner : FULL_SINGLE_INVERSE : inversion of 
                                         H + eS - 2*(Sc)(c^T*H*c+const)(Sc)^T
  Precond_solver : DEFAULT
  stepsize       :    0.08000000                  energy_gap     :    0.08000000
  eps_taylor     :   0.10000E-15                  max_taylor     :             4
  ----------------------------------- OT ---------------------------------------

  Step     Update method      Time    Convergence         Total energy    Change
  ------------------------------------------------------------------------------
     1 OT DIIS     0.80E-01    1.3     0.00111285      -113.5400468909 -1.14E+02
     2 OT DIIS     0.80E-01    1.6     0.00053707      -113.5404299298 -3.83E-04
     3 OT DIIS     0.80E-01    1.6     0.00026939      -113.5405007854 -7.09E-05
     4 OT DIIS     0.80E-01    1.6     0.00012888      -113.5405268527 -2.61E-05
     5 OT DIIS     0.80E-01    1.6     0.00007868      -113.5405321110 -5.26E-06
     6 OT DIIS     0.80E-01    1.6     0.00004047      -113.5405342690 -2.16E-06
     7 OT DIIS     0.80E-01    1.6     0.00001818      -113.5405349717 -7.03E-07
     8 OT DIIS     0.80E-01    1.6     0.00001158      -113.5405351027 -1.31E-07
     9 OT DIIS     0.80E-01    1.6     0.00000652      -113.5405351499 -4.72E-08
    10 OT DIIS     0.80E-01    1.6     0.00000396      -113.5405351687 -1.88E-08
    11 OT DIIS     0.80E-01    1.6     0.00000181      -113.5405351767 -7.97E-09
    12 OT DIIS     0.80E-01    1.7     0.00000096      -113.5405351794 -2.74E-09

  *** SCF run converged in    12 steps ***


  Electronic density on regular grids:        -69.9999999991        0.0000000009
  Core density on regular grids:               69.9999999957       -0.0000000043
  Total charge density on r-space grids:       -0.0000000034
  Total charge density g-space grids:          -0.0000000034

  Overlap energy of the core charge distribution:               0.00000357328597
  Self energy of the core charge distribution:               -278.09582761455005
  Core Hamiltonian energy:                                     84.16699158746064
  Hartree energy:                                             112.67142479263755
  Exchange-correlation energy:                                -31.82260801673374
  QM/MM Electrostatic energy:                                  -0.46051950151492

  Total energy:                                              -113.54053517941452

  outer SCF iter =    1 RMS gradient =   0.96E-06 energy =       -113.5405351794
  outer SCF loop converged in   1 iterations or   12 steps


 ENERGY| Total FORCE_EVAL ( QMMM ) energy (a.u.):           -239.165101397313919


 *******************************************************************************
 ENSEMBLE TYPE                =                                              NVT
 STEP NUMBER                  =                                                5
 TIME [fs]                    =                                         5.000000
 CONSERVED QUANTITY [hartree] =                              -0.198763131814E+03

                                              INSTANTANEOUS             AVERAGES
 CPU TIME [s]                 =                       65.39                88.62
 ENERGY DRIFT PER ATOM [K]    =          0.876096731410E-01   0.200843093148E+00
 POTENTIAL ENERGY[hartree]    =         -0.239165101397E+03  -0.238977017110E+03
 TOTAL KINETIC ENERGY[hartree]=          0.403872791023E+02   0.402213865458E+02
 QM KINETIC ENERGY[hartree]   =          0.656725339681E-01   0.535212955274E-01
 TOTAL TEMPERATURE[K]         =                     300.824              299.588
 QM TEMPERATURE[K]            =                     628.416              512.141
 *******************************************************************************


  Translating the system in order to center the QM fragment in the QM box.

 Number of electrons:                                                         70
 Number of occupied orbitals:                                                 35
 Number of molecular orbitals:                                                35

 Number of orbital functions:                                                222
 Number of independent orbital functions:                                    222

 Extrapolation method: ASPC


 SCF WAVEFUNCTION OPTIMIZATION

  ----------------------------------- OT ---------------------------------------
  Minimizer      : DIIS                : direct inversion
                                         in the iterative subspace
                                         using   7 DIIS vectors
                                         safer DIIS on
  Preconditioner : FULL_SINGLE_INVERSE : inversion of 
                                         H + eS - 2*(Sc)(c^T*H*c+const)(Sc)^T
  Precond_solver : DEFAULT
  stepsize       :    0.08000000                  energy_gap     :    0.08000000
  eps_taylor     :   0.10000E-15                  max_taylor     :             4
  ----------------------------------- OT ---------------------------------------

  Step     Update method      Time    Convergence         Total energy    Change
  ------------------------------------------------------------------------------
     1 OT DIIS     0.80E-01    1.3     0.00093023      -113.4997066833 -1.13E+02
     2 OT DIIS     0.80E-01    1.6     0.00044033      -113.4999972362 -2.91E-04
     3 OT DIIS     0.80E-01    1.6     0.00024983      -113.5000486609 -5.14E-05
     4 OT DIIS     0.80E-01    1.7     0.00010990      -113.5000703066 -2.16E-05
     5 OT DIIS     0.80E-01    1.6     0.00007263      -113.5000744047 -4.10E-06
     6 OT DIIS     0.80E-01    1.6     0.00003882      -113.5000761867 -1.78E-06
     7 OT DIIS     0.80E-01    1.6     0.00001632      -113.5000769513 -7.65E-07
     8 OT DIIS     0.80E-01    1.6     0.00001120      -113.5000770757 -1.24E-07
     9 OT DIIS     0.80E-01    1.6     0.00000646      -113.5000771163 -4.06E-08
    10 OT DIIS     0.80E-01    1.6     0.00000394      -113.5000771337 -1.74E-08
    11 OT DIIS     0.80E-01    1.6     0.00000171      -113.5000771402 -6.55E-09
    12 OT DIIS     0.80E-01    1.6     0.00000089      -113.5000771420 -1.72E-09

  *** SCF run converged in    12 steps ***


  Electronic density on regular grids:        -69.9999999984        0.0000000016
  Core density on regular grids:               69.9999999958       -0.0000000042
  Total charge density on r-space grids:       -0.0000000026
  Total charge density g-space grids:          -0.0000000026

  Overlap energy of the core charge distribution:               0.00000340080360
  Self energy of the core charge distribution:               -278.09582761455005
  Core Hamiltonian energy:                                     84.17600077732993
  Hartree energy:                                             112.66243374182943
  Exchange-correlation energy:                                -31.83121071727041
  QM/MM Electrostatic energy:                                  -0.41147673010094

  Total energy:                                              -113.50007714195841

  outer SCF iter =    1 RMS gradient =   0.89E-06 energy =       -113.5000771420
  outer SCF loop converged in   1 iterations or   12 steps


 ENERGY| Total FORCE_EVAL ( QMMM ) energy (a.u.):           -239.213683481926012


 *******************************************************************************
 ENSEMBLE TYPE                =                                              NVT
 STEP NUMBER                  =                                                6
 TIME [fs]                    =                                         6.000000
 CONSERVED QUANTITY [hartree] =                              -0.198747601613E+03

                                              INSTANTANEOUS             AVERAGES
 CPU TIME [s]                 =                       65.21                84.72
 ENERGY DRIFT PER ATOM [K]    =          0.261118156788E+00   0.210888937088E+00
 POTENTIAL ENERGY[hartree]    =         -0.239213683482E+03  -0.239016461506E+03
 TOTAL KINETIC ENERGY[hartree]=          0.404483812793E+02   0.402592190014E+02
 QM KINETIC ENERGY[hartree]   =          0.726153438248E-01   0.567036369103E-01
 TOTAL TEMPERATURE[K]         =                     301.279              299.870
 QM TEMPERATURE[K]            =                     694.851              542.593
 *******************************************************************************


  Translating the system in order to center the QM fragment in the QM box.

 Number of electrons:                                                         70
 Number of occupied orbitals:                                                 35
 Number of molecular orbitals:                                                35

 Number of orbital functions:                                                222
 Number of independent orbital functions:                                    222

 Extrapolation method: ASPC


 SCF WAVEFUNCTION OPTIMIZATION

  ----------------------------------- OT ---------------------------------------
  Minimizer      : DIIS                : direct inversion
                                         in the iterative subspace
                                         using   7 DIIS vectors
                                         safer DIIS on
  Preconditioner : FULL_SINGLE_INVERSE : inversion of 
                                         H + eS - 2*(Sc)(c^T*H*c+const)(Sc)^T
  Precond_solver : DEFAULT
  stepsize       :    0.08000000                  energy_gap     :    0.08000000
  eps_taylor     :   0.10000E-15                  max_taylor     :             4
  ----------------------------------- OT ---------------------------------------

  Step     Update method      Time    Convergence         Total energy    Change
  ------------------------------------------------------------------------------
     1 OT DIIS     0.80E-01    1.3     0.00069949      -113.4669404004 -1.13E+02
     2 OT DIIS     0.80E-01    1.6     0.00031767      -113.4670961661 -1.56E-04
     3 OT DIIS     0.80E-01    1.6     0.00016056      -113.4671241135 -2.79E-05
     4 OT DIIS     0.80E-01    1.6     0.00007636      -113.4671346524 -1.05E-05
     5 OT DIIS     0.80E-01    1.6     0.00004360      -113.4671368648 -2.21E-06
     6 OT DIIS     0.80E-01    1.6     0.00002242      -113.4671377496 -8.85E-07
     7 OT DIIS     0.80E-01    1.6     0.00000984      -113.4671380033 -2.54E-07
     8 OT DIIS     0.80E-01    1.6     0.00000546      -113.4671380569 -5.36E-08
     9 OT DIIS     0.80E-01    1.6     0.00000315      -113.4671380713 -1.44E-08
    10 OT DIIS     0.80E-01    1.6     0.00000153      -113.4671380801 -8.79E-09
    11 OT DIIS     0.80E-01    1.6     0.00000097      -113.4671380816 -1.46E-09

  *** SCF run converged in    11 steps ***


  Electronic density on regular grids:        -69.9999999976        0.0000000024
  Core density on regular grids:               69.9999999957       -0.0000000043
  Total charge density on r-space grids:       -0.0000000019
  Total charge density g-space grids:          -0.0000000019

  Overlap energy of the core charge distribution:               0.00000358667419
  Self energy of the core charge distribution:               -278.09582761455005
  Core Hamiltonian energy:                                     84.23395559641531
  Hartree energy:                                             112.62333529849371
  Exchange-correlation energy:                                -31.85331247130973
  QM/MM Electrostatic energy:                                  -0.37529247731893

  Total energy:                                              -113.46713808159546

  outer SCF iter =    1 RMS gradient =   0.97E-06 energy =       -113.4671380816
  outer SCF loop converged in   1 iterations or   11 steps


 ENERGY| Total FORCE_EVAL ( QMMM ) energy (a.u.):           -239.262127720264317


 *******************************************************************************
 ENSEMBLE TYPE                =                                              NVT
 STEP NUMBER                  =                                                7
 TIME [fs]                    =                                         7.000000
 CONSERVED QUANTITY [hartree] =                              -0.198737082096E+03

                                              INSTANTANEOUS             AVERAGES
 CPU TIME [s]                 =                       63.46                81.68
 ENERGY DRIFT PER ATOM [K]    =          0.378645644442E+00   0.234854180995E+00
 POTENTIAL ENERGY[hartree]    =         -0.239262127720E+03  -0.239051556679E+03
 TOTAL KINETIC ENERGY[hartree]=          0.405042417142E+02   0.402942222461E+02
 QM KINETIC ENERGY[hartree]   =          0.740148665626E-01   0.591766697178E-01
 TOTAL TEMPERATURE[K]         =                     301.695              300.131
 QM TEMPERATURE[K]            =                     708.243              566.257
 *******************************************************************************


  Translating the system in order to center the QM fragment in the QM box.

 Number of electrons:                                                         70
 Number of occupied orbitals:                                                 35
 Number of molecular orbitals:                                                35

 Number of orbital functions:                                                222
 Number of independent orbital functions:                                    222

 Extrapolation method: ASPC


 SCF WAVEFUNCTION OPTIMIZATION

  ----------------------------------- OT ---------------------------------------
  Minimizer      : DIIS                : direct inversion
                                         in the iterative subspace
                                         using   7 DIIS vectors
                                         safer DIIS on
  Preconditioner : FULL_SINGLE_INVERSE : inversion of 
                                         H + eS - 2*(Sc)(c^T*H*c+const)(Sc)^T
  Precond_solver : DEFAULT
  stepsize       :    0.08000000                  energy_gap     :    0.08000000
  eps_taylor     :   0.10000E-15                  max_taylor     :             4
  ----------------------------------- OT ---------------------------------------

  Step     Update method      Time    Convergence         Total energy    Change
  ------------------------------------------------------------------------------
     1 OT DIIS     0.80E-01    1.3     0.00065766      -113.4219659181 -1.13E+02
     2 OT DIIS     0.80E-01    1.6     0.00031027      -113.4221177919 -1.52E-04
     3 OT DIIS     0.80E-01    1.6     0.00017570      -113.4221481683 -3.04E-05
     4 OT DIIS     0.80E-01    1.6     0.00008163      -113.4221614528 -1.33E-05
     5 OT DIIS     0.80E-01    1.6     0.00005112      -113.4221639381 -2.49E-06
     6 OT DIIS     0.80E-01    1.6     0.00002462      -113.4221649401 -1.00E-06
     7 OT DIIS     0.80E-01    1.6     0.00001160      -113.4221652039 -2.64E-07
     8 OT DIIS     0.80E-01    1.6     0.00000710      -113.4221652613 -5.74E-08
     9 OT DIIS     0.80E-01    1.6     0.00000383      -113.4221652790 -1.77E-08
    10 OT DIIS     0.80E-01    1.6     0.00000212      -113.4221652871 -8.06E-09
    11 OT DIIS     0.80E-01    1.6     0.00000107      -113.4221652894 -2.29E-09
    12 OT DIIS     0.80E-01    1.6     0.00000058      -113.4221652901 -7.04E-10

  *** SCF run converged in    12 steps ***


  Electronic density on regular grids:        -70.0000000015       -0.0000000015
  Core density on regular grids:               69.9999999957       -0.0000000043
  Total charge density on r-space grids:       -0.0000000058
  Total charge density g-space grids:          -0.0000000058

  Overlap energy of the core charge distribution:               0.00000447763649
  Self energy of the core charge distribution:               -278.09582761455005
  Core Hamiltonian energy:                                     84.32282547166847
  Hartree energy:                                             112.56969742150184
  Exchange-correlation energy:                                -31.88296184020052
  QM/MM Electrostatic energy:                                  -0.33590320616041

  Total energy:                                              -113.42216529010419

  outer SCF iter =    1 RMS gradient =   0.58E-06 energy =       -113.4221652901
  outer SCF loop converged in   1 iterations or   12 steps


 ENERGY| Total FORCE_EVAL ( QMMM ) energy (a.u.):           -239.424389842185008


 *******************************************************************************
 ENSEMBLE TYPE                =                                              NVT
 STEP NUMBER                  =                                                8
 TIME [fs]                    =                                         8.000000
 CONSERVED QUANTITY [hartree] =                              -0.198768989004E+03

                                              INSTANTANEOUS             AVERAGES
 CPU TIME [s]                 =                       65.24                79.63
 ENERGY DRIFT PER ATOM [K]    =          0.221712342382E-01   0.208268812651E+00
 POTENTIAL ENERGY[hartree]    =         -0.239424389842E+03  -0.239098160824E+03
 TOTAL KINETIC ENERGY[hartree]=          0.406313843192E+02   0.403363675052E+02
 QM KINETIC ENERGY[hartree]   =          0.672579977531E-01   0.601868357222E-01
 TOTAL TEMPERATURE[K]         =                     302.642              300.445
 QM TEMPERATURE[K]            =                     643.587              575.924
 *******************************************************************************


  Translating the system in order to center the QM fragment in the QM box.

 Number of electrons:                                                         70
 Number of occupied orbitals:                                                 35
 Number of molecular orbitals:                                                35

 Number of orbital functions:                                                222
 Number of independent orbital functions:                                    222

 Extrapolation method: ASPC


 SCF WAVEFUNCTION OPTIMIZATION

  ----------------------------------- OT ---------------------------------------
  Minimizer      : DIIS                : direct inversion
                                         in the iterative subspace
                                         using   7 DIIS vectors
                                         safer DIIS on
  Preconditioner : FULL_SINGLE_INVERSE : inversion of 
                                         H + eS - 2*(Sc)(c^T*H*c+const)(Sc)^T
  Precond_solver : DEFAULT
  stepsize       :    0.08000000                  energy_gap     :    0.08000000
  eps_taylor     :   0.10000E-15                  max_taylor     :             4
  ----------------------------------- OT ---------------------------------------

  Step     Update method      Time    Convergence         Total energy    Change
  ------------------------------------------------------------------------------
     1 OT DIIS     0.80E-01    1.3     0.00061348      -113.4010158826 -1.13E+02
     2 OT DIIS     0.80E-01    1.6     0.00030096      -113.4011633079 -1.47E-04
     3 OT DIIS     0.80E-01    1.6     0.00017860      -113.4011990009 -3.57E-05
     4 OT DIIS     0.80E-01    1.6     0.00007253      -113.4012140308 -1.50E-05
     5 OT DIIS     0.80E-01    1.6     0.00004435      -113.4012163433 -2.31E-06
     6 OT DIIS     0.80E-01    1.6     0.00001967      -113.4012171684 -8.25E-07
     7 OT DIIS     0.80E-01    1.7     0.00000891      -113.4012173420 -1.74E-07
     8 OT DIIS     0.80E-01    1.6     0.00000543      -113.4012173782 -3.62E-08
     9 OT DIIS     0.80E-01    1.6     0.00000306      -113.4012173887 -1.05E-08
    10 OT DIIS     0.80E-01    1.6     0.00000150      -113.4012173933 -4.60E-09
    11 OT DIIS     0.80E-01    1.6     0.00000083      -113.4012173945 -1.20E-09

  *** SCF run converged in    11 steps ***


  Electronic density on regular grids:        -70.0000000003       -0.0000000003
  Core density on regular grids:               69.9999999957       -0.0000000043
  Total charge density on r-space grids:       -0.0000000046
  Total charge density g-space grids:          -0.0000000046

  Overlap energy of the core charge distribution:               0.00000636600690
  Self energy of the core charge distribution:               -278.09582761455005
  Core Hamiltonian energy:                                     84.38356381066137
  Hartree energy:                                             112.54108973487502
  Exchange-correlation energy:                                -31.90322931197169
  QM/MM Electrostatic energy:                                  -0.32682037948881

  Total energy:                                              -113.40121739446724

  outer SCF iter =    1 RMS gradient =   0.83E-06 energy =       -113.4012173945
  outer SCF loop converged in   1 iterations or   11 steps


 ENERGY| Total FORCE_EVAL ( QMMM ) energy (a.u.):           -239.352435534529377


 *******************************************************************************
 ENSEMBLE TYPE                =                                              NVT
 STEP NUMBER                  =                                                9
 TIME [fs]                    =                                         9.000000
 CONSERVED QUANTITY [hartree] =                              -0.198738848688E+03

                                              INSTANTANEOUS             AVERAGES
 CPU TIME [s]                 =                       63.57                77.84
 ENERGY DRIFT PER ATOM [K]    =          0.358908693086E+00   0.225006577144E+00
 POTENTIAL ENERGY[hartree]    =         -0.239352435535E+03  -0.239126413570E+03
 TOTAL KINETIC ENERGY[hartree]=          0.405862326714E+02   0.403641303015E+02
 QM KINETIC ENERGY[hartree]   =          0.562675452788E-01   0.597513590063E-01
 TOTAL TEMPERATURE[K]         =                     302.306              300.651
 QM TEMPERATURE[K]            =                     538.420              571.756
 *******************************************************************************


  Translating the system in order to center the QM fragment in the QM box.

 Number of electrons:                                                         70
 Number of occupied orbitals:                                                 35
 Number of molecular orbitals:                                                35

 Number of orbital functions:                                                222
 Number of independent orbital functions:                                    222

 Extrapolation method: ASPC


 SCF WAVEFUNCTION OPTIMIZATION

  ----------------------------------- OT ---------------------------------------
  Minimizer      : DIIS                : direct inversion
                                         in the iterative subspace
                                         using   7 DIIS vectors
                                         safer DIIS on
  Preconditioner : FULL_SINGLE_INVERSE : inversion of 
                                         H + eS - 2*(Sc)(c^T*H*c+const)(Sc)^T
  Precond_solver : DEFAULT
  stepsize       :    0.08000000                  energy_gap     :    0.08000000
  eps_taylor     :   0.10000E-15                  max_taylor     :             4
  ----------------------------------- OT ---------------------------------------

  Step     Update method      Time    Convergence         Total energy    Change
  ------------------------------------------------------------------------------
     1 OT DIIS     0.80E-01    1.3     0.00067445      -113.3825467170 -1.13E+02
     2 OT DIIS     0.80E-01    1.6     0.00032704      -113.3826963807 -1.50E-04
     3 OT DIIS     0.80E-01    1.6     0.00017417      -113.3827290224 -3.26E-05
     4 OT DIIS     0.80E-01    1.6     0.00007588      -113.3827446699 -1.56E-05
     5 OT DIIS     0.80E-01    1.6     0.00004068      -113.3827476198 -2.95E-06
     6 OT DIIS     0.80E-01    1.6     0.00002131      -113.3827483353 -7.16E-07
     7 OT DIIS     0.80E-01    1.6     0.00000900      -113.3827485126 -1.77E-07
     8 OT DIIS     0.80E-01    1.6     0.00000506      -113.3827485455 -3.30E-08
     9 OT DIIS     0.80E-01    1.6     0.00000282      -113.3827485549 -9.41E-09
    10 OT DIIS     0.80E-01    1.6     0.00000149      -113.3827485584 -3.44E-09
    11 OT DIIS     0.80E-01    1.6     0.00000078      -113.3827485594 -9.80E-10

  *** SCF run converged in    11 steps ***


  Electronic density on regular grids:        -69.9999999963        0.0000000037
  Core density on regular grids:               69.9999999957       -0.0000000043
  Total charge density on r-space grids:       -0.0000000006
  Total charge density g-space grids:          -0.0000000006

  Overlap energy of the core charge distribution:               0.00000793259233
  Self energy of the core charge distribution:               -278.09582761455005
  Core Hamiltonian energy:                                     84.37130619970554
  Hartree energy:                                             112.56022024439284
  Exchange-correlation energy:                                -31.90124912198871
  QM/MM Electrostatic energy:                                  -0.31720619951227

  Total energy:                                              -113.38274855936032

  outer SCF iter =    1 RMS gradient =   0.78E-06 energy =       -113.3827485594
  outer SCF loop converged in   1 iterations or   11 steps


 ENERGY| Total FORCE_EVAL ( QMMM ) energy (a.u.):           -239.399650458481005


 *******************************************************************************
 ENSEMBLE TYPE                =                                              NVT
 STEP NUMBER                  =                                               10
 TIME [fs]                    =                                        10.000000
 CONSERVED QUANTITY [hartree] =                              -0.198743788218E+03

                                              INSTANTANEOUS             AVERAGES
 CPU TIME [s]                 =                       63.68                76.43
 ENERGY DRIFT PER ATOM [K]    =          0.303722654433E+00   0.232878184873E+00
 POTENTIAL ENERGY[hartree]    =         -0.239399650458E+03  -0.239153737259E+03
 TOTAL KINETIC ENERGY[hartree]=          0.406250516072E+02   0.403902224320E+02
 QM KINETIC ENERGY[hartree]   =          0.489179446095E-01   0.586680175666E-01
 TOTAL TEMPERATURE[K]         =                     302.595              300.846
 QM TEMPERATURE[K]            =                     468.092              561.390
 *******************************************************************************


  Translating the system in order to center the QM fragment in the QM box.

 Number of electrons:                                                         70
 Number of occupied orbitals:                                                 35
 Number of molecular orbitals:                                                35

 Number of orbital functions:                                                222
 Number of independent orbital functions:                                    222

 Extrapolation method: ASPC


 SCF WAVEFUNCTION OPTIMIZATION

  ----------------------------------- OT ---------------------------------------
  Minimizer      : DIIS                : direct inversion
                                         in the iterative subspace
                                         using   7 DIIS vectors
                                         safer DIIS on
  Preconditioner : FULL_SINGLE_INVERSE : inversion of 
                                         H + eS - 2*(Sc)(c^T*H*c+const)(Sc)^T
  Precond_solver : DEFAULT
  stepsize       :    0.08000000                  energy_gap     :    0.08000000
  eps_taylor     :   0.10000E-15                  max_taylor     :             4
  ----------------------------------- OT ---------------------------------------

  Step     Update method      Time    Convergence         Total energy    Change
  ------------------------------------------------------------------------------
     1 OT DIIS     0.80E-01    1.3     0.00063543      -113.3526096281 -1.13E+02
     2 OT DIIS     0.80E-01    1.6     0.00029206      -113.3527523765 -1.43E-04
     3 OT DIIS     0.80E-01    1.6     0.00016668      -113.3527797296 -2.74E-05
     4 OT DIIS     0.80E-01    1.6     0.00007498      -113.3527911579 -1.14E-05
     5 OT DIIS     0.80E-01    1.7     0.00003830      -113.3527934337 -2.28E-06
     6 OT DIIS     0.80E-01    1.7     0.00001659      -113.3527942008 -7.67E-07
     7 OT DIIS     0.80E-01    1.6     0.00000823      -113.3527943228 -1.22E-07
     8 OT DIIS     0.80E-01    1.6     0.00000431      -113.3527943468 -2.40E-08
     9 OT DIIS     0.80E-01    1.6     0.00000220      -113.3527943540 -7.15E-09
    10 OT DIIS     0.80E-01    1.6     0.00000116      -113.3527943563 -2.28E-09
    11 OT DIIS     0.80E-01    1.6     0.00000056      -113.3527943568 -5.03E-10

  *** SCF run converged in    11 steps ***


  Electronic density on regular grids:        -69.9999999962        0.0000000038
  Core density on regular grids:               69.9999999957       -0.0000000043
  Total charge density on r-space grids:       -0.0000000004
  Total charge density g-space grids:          -0.0000000004

  Overlap energy of the core charge distribution:               0.00000702393035
  Self energy of the core charge distribution:               -278.09582761455005
  Core Hamiltonian energy:                                     84.29120414153292
  Hartree energy:                                             112.61973023023373
  Exchange-correlation energy:                                -31.87835997731531
  QM/MM Electrostatic energy:                                  -0.28954816060724

  Total energy:                                              -113.35279435677563

  outer SCF iter =    1 RMS gradient =   0.56E-06 energy =       -113.3527943568
  outer SCF loop converged in   1 iterations or   11 steps


 ENERGY| Total FORCE_EVAL ( QMMM ) energy (a.u.):           -239.513467890312882


 *******************************************************************************
 ENSEMBLE TYPE                =                                              NVT
 STEP NUMBER                  =                                               11
 TIME [fs]                    =                                        11.000000
 CONSERVED QUANTITY [hartree] =                              -0.198758502119E+03

                                              INSTANTANEOUS             AVERAGES
 CPU TIME [s]                 =                       63.73                75.27
 ENERGY DRIFT PER ATOM [K]    =          0.139334144172E+00   0.224374181173E+00
 POTENTIAL ENERGY[hartree]    =         -0.239513467890E+03  -0.239186440044E+03
 TOTAL KINETIC ENERGY[hartree]=          0.407205667142E+02   0.404202537304E+02
 QM KINETIC ENERGY[hartree]   =          0.480773676752E-01   0.577052312128E-01
 TOTAL TEMPERATURE[K]         =                     303.306              301.070
 QM TEMPERATURE[K]            =                     460.049              552.177
 *******************************************************************************


  Translating the system in order to center the QM fragment in the QM box.

 Number of electrons:                                                         70
 Number of occupied orbitals:                                                 35
 Number of molecular orbitals:                                                35

 Number of orbital functions:                                                222
 Number of independent orbital functions:                                    222

 Extrapolation method: ASPC


 SCF WAVEFUNCTION OPTIMIZATION

  ----------------------------------- OT ---------------------------------------
  Minimizer      : DIIS                : direct inversion
                                         in the iterative subspace
                                         using   7 DIIS vectors
                                         safer DIIS on
  Preconditioner : FULL_SINGLE_INVERSE : inversion of 
                                         H + eS - 2*(Sc)(c^T*H*c+const)(Sc)^T
  Precond_solver : DEFAULT
  stepsize       :    0.08000000                  energy_gap     :    0.08000000
  eps_taylor     :   0.10000E-15                  max_taylor     :             4
  ----------------------------------- OT ---------------------------------------

  Step     Update method      Time    Convergence         Total energy    Change
  ------------------------------------------------------------------------------
     1 OT DIIS     0.80E-01    1.3     0.00062060      -113.2659853360 -1.13E+02
     2 OT DIIS     0.80E-01    1.6     0.00031035      -113.2661184101 -1.33E-04
     3 OT DIIS     0.80E-01    1.6     0.00018316      -113.2661463343 -2.79E-05
     4 OT DIIS     0.80E-01    1.6     0.00008815      -113.2661591990 -1.29E-05
     5 OT DIIS     0.80E-01    1.6     0.00004377      -113.2661619681 -2.77E-06
     6 OT DIIS     0.80E-01    1.6     0.00002397      -113.2661628948 -9.27E-07
     7 OT DIIS     0.80E-01    1.7     0.00001207      -113.2661631053 -2.10E-07
     8 OT DIIS     0.80E-01    1.6     0.00000590      -113.2661631572 -5.19E-08
     9 OT DIIS     0.80E-01    1.6     0.00000332      -113.2661631720 -1.48E-08
    10 OT DIIS     0.80E-01    1.6     0.00000205      -113.2661631773 -5.31E-09
    11 OT DIIS     0.80E-01    1.6     0.00000091      -113.2661631791 -1.74E-09

  *** SCF run converged in    11 steps ***


  Electronic density on regular grids:        -69.9999999985        0.0000000015
  Core density on regular grids:               69.9999999958       -0.0000000042
  Total charge density on r-space grids:       -0.0000000027
  Total charge density g-space grids:          -0.0000000027

  Overlap energy of the core charge distribution:               0.00000559973927
  Self energy of the core charge distribution:               -278.09582761455005
  Core Hamiltonian energy:                                     84.18515702391105
  Hartree energy:                                             112.69518448044674
  Exchange-correlation energy:                                -31.84577264560666
  QM/MM Electrostatic energy:                                  -0.20491002300087

  Total energy:                                              -113.26616317906053

  outer SCF iter =    1 RMS gradient =   0.91E-06 energy =       -113.2661631791
  outer SCF loop converged in   1 iterations or   11 steps


 ENERGY| Total FORCE_EVAL ( QMMM ) energy (a.u.):           -239.513185732664738


 *******************************************************************************
 ENSEMBLE TYPE                =                                              NVT
 STEP NUMBER                  =                                               12
 TIME [fs]                    =                                        12.000000
[...]
  Core density on regular grids:               69.9999999957       -0.0000000043
  Total charge density on r-space grids:       -0.0000000063
  Total charge density g-space grids:          -0.0000000063

  Overlap energy of the core charge distribution:               0.00000486042419
  Self energy of the core charge distribution:               -278.09582761455005
  Core Hamiltonian energy:                                     84.34748278846899
  Hartree energy:                                             112.55800257448007
  Exchange-correlation energy:                                -31.88410043544526
  QM/MM Electrostatic energy:                                   0.45584643670343

  Total energy:                                              -112.61859138991858

  outer SCF iter =    1 RMS gradient =   0.52E-06 energy =       -112.6185913899
  outer SCF loop converged in   1 iterations or   11 steps


 ENERGY| Total FORCE_EVAL ( QMMM ) energy (a.u.):           -239.430363667451616


 *******************************************************************************
 ENSEMBLE TYPE                =                                              NVT
 STEP NUMBER                  =                                               40
 TIME [fs]                    =                                        40.000000
 CONSERVED QUANTITY [hartree] =                              -0.198773134624E+03

                                              INSTANTANEOUS             AVERAGES
 CPU TIME [s]                 =                       63.45                70.36
 ENERGY DRIFT PER ATOM [K]    =         -0.241449882976E-01   0.246018065778E+00
 POTENTIAL ENERGY[hartree]    =         -0.239430363667E+03  -0.239425177049E+03
 TOTAL KINETIC ENERGY[hartree]=          0.404626115054E+02   0.405929594100E+02
 QM KINETIC ENERGY[hartree]   =          0.553401015270E-01   0.545373570664E-01
 TOTAL TEMPERATURE[K]         =                     301.385              302.356
 QM TEMPERATURE[K]            =                     529.545              521.864
 *******************************************************************************


 -------------------------------------------------------------------------------
 -                                                                             -
 -                                DBCSR STATISTICS                             -
 -                                                                             -
 -------------------------------------------------------------------------------
 COUNTER                                    TOTAL       BLAS       SMM       ACC
 flops     3 x     3 x     3               160056       0.0%    100.0%      0.0%
 flops    13 x     3 x     3               275184       0.0%    100.0%      0.0%
 flops     5 x     3 x     3               281970       0.0%    100.0%      0.0%
 flops    15 x     3 x     3               664470       0.0%    100.0%      0.0%
 flops     3 x     3 x     5              1465920       0.0%    100.0%      0.0%
 flops    13 x    32 x     3              1467648       0.0%    100.0%      0.0%
 flops    13 x     3 x    32              1467648       0.0%    100.0%      0.0%
 flops     3 x     3 x    32              1707264       0.0%    100.0%      0.0%
 flops     3 x    32 x     3              1707264       0.0%    100.0%      0.0%
 flops    32 x     3 x     3              1707264       0.0%    100.0%      0.0%
 flops    15 x     3 x     5              1983600       0.0%    100.0%      0.0%
 flops     5 x    32 x     3              2685120       0.0%    100.0%      0.0%
 flops     5 x     3 x    32              2685120       0.0%    100.0%      0.0%
 flops     5 x     5 x     3              3418200       0.0%    100.0%      0.0%
 flops    39 x     3 x     3              3455244       0.0%    100.0%      0.0%
 flops    31 x     3 x     3              5492952       0.0%    100.0%      0.0%
 flops     3 x     3 x    13              6669936       0.0%    100.0%      0.0%
 flops    15 x     3 x    32              7087680       0.0%    100.0%      0.0%
 flops    15 x    32 x     3              7087680       0.0%    100.0%      0.0%
 flops    15 x     3 x    13              9025380       0.0%    100.0%      0.0%
 flops    39 x     3 x     5             10314720       0.0%    100.0%      0.0%
 flops     5 x    13 x     3             13824720       0.0%    100.0%      0.0%
 flops    13 x     5 x     3             13824720       0.0%    100.0%      0.0%
 flops     5 x     3 x     5             13899600       0.0%    100.0%      0.0%
 flops    32 x     3 x     5             15313920       0.0%    100.0%      0.0%
 flops     3 x    32 x     5             15636480       0.0%    100.0%      0.0%
 flops    31 x     3 x     5             16397760       0.0%    100.0%      0.0%
 flops    32 x    32 x     3             18210816       0.0%    100.0%      0.0%
 flops     3 x    32 x    32             18210816       0.0%    100.0%      0.0%
 flops    32 x     3 x    32             18210816       0.0%    100.0%      0.0%
 flops    15 x    32 x     5             21158400       0.0%    100.0%      0.0%
 flops    13 x    32 x    32             31309824       0.0%    100.0%      0.0%
 flops     5 x    32 x    32             32081920       0.0%    100.0%      0.0%
 flops     5 x     5 x    32             36460800       0.0%    100.0%      0.0%
 flops    39 x     3 x    32             36855936       0.0%    100.0%      0.0%
 flops    39 x    32 x     3             36855936       0.0%    100.0%      0.0%
 flops    39 x     3 x    13             46931976       0.0%    100.0%      0.0%
 flops    31 x    32 x     3             58591488       0.0%    100.0%      0.0%
 flops    31 x     3 x    32             58591488       0.0%    100.0%      0.0%
 flops    13 x     3 x     5             60234720       0.0%    100.0%      0.0%
 flops     5 x     3 x    13             63243180       0.0%    100.0%      0.0%
 flops    13 x    13 x     3             67395510       0.0%    100.0%      0.0%
 flops    32 x     3 x    13             69678336       0.0%    100.0%      0.0%
 flops     3 x    32 x    13             71145984       0.0%    100.0%      0.0%
 flops    31 x     3 x    13             74609808       0.0%    100.0%      0.0%
 flops    15 x    32 x    32             75601920       0.0%    100.0%      0.0%
 flops    15 x    32 x    13             96270720       0.0%    100.0%      0.0%
 flops    39 x    32 x     5            110023680       0.0%    100.0%      0.0%
 flops     5 x    13 x    32            147463680       0.0%    100.0%      0.0%
 flops    13 x     5 x    32            147463680       0.0%    100.0%      0.0%
 flops     5 x    32 x     5            148262400       0.0%    100.0%      0.0%
 flops    32 x    32 x     5            166789120       0.0%    100.0%      0.0%
 flops    31 x    32 x     5            174909440       0.0%    100.0%      0.0%
 flops    32 x    32 x    32            194248704       0.0%    100.0%      0.0%
 flops    13 x     3 x    13            274067976       0.0%    100.0%      0.0%
 flops    39 x    32 x    32            393129984       0.0%    100.0%      0.0%
 flops    39 x    32 x    13            500607744       0.0%    100.0%      0.0%
 flops    31 x    32 x    32            624975872       0.0%    100.0%      0.0%
 flops    13 x    32 x     5            642503680       0.0%    100.0%      0.0%
 flops     5 x    32 x    13            674593920       0.0%    100.0%      0.0%
 flops    13 x    13 x    32            718885440       0.0%    100.0%      0.0%
 flops    32 x    32 x    13            758890496       0.0%    100.0%      0.0%
 flops    31 x    32 x    13            795837952       0.0%    100.0%      0.0%
 flops    13 x    32 x    13           2923391744       0.0%    100.0%      0.0%
 flops inhomo. stacks                           0       0.0%      0.0%      0.0%
 flops total                        10.547403E+09       0.0%    100.0%      0.0%
 flops max/rank                      2.172167E+09       0.0%    100.0%      0.0%
 matmuls inhomo. stacks                         0       0.0%      0.0%      0.0%
 matmuls total                            2135374       0.0%    100.0%      0.0%
 number of processed stacks               1467858       0.0%    100.0%      0.0%
 average stack size                                     0.0       1.5       0.0
 marketing flops                    11.610379E+09
 -------------------------------------------------------------------------------
 # multiplications                          10150
 max memory usage/rank               1.758872E+09
 # max total images/rank                        3
 # max 3D layers                                1
 # MPI messages exchanged               179289600
 MPI messages size (bytes):
  total size                        33.446445E+09
  min size                           0.000000E+00
  max size                           9.984000E+03
  average size                     186.549835E+00
 MPI breakdown and total messages size (bytes):
             size <=      128           164304065                169303368
       128 < size <=     8192            14839347              31810669984
      8192 < size <=    32768              146188               1459540992
     32768 < size <=   131072                   0                        0
    131072 < size <=  4194304                   0                        0
   4194304 < size <= 16777216                   0                        0
  16777216 < size                               0                        0
 -------------------------------------------------------------------------------

 *** WARNING in dbcsr/mm/dbcsr_mm.F:268 :: Using a non-square number of ***
 *** MPI ranks might lead to poor performance.                          ***
 *** Used ranks: 192                                                    ***
 *** Suggested: 196 400                                                 ***

 -------------------------------------------------------------------------------

 MEMORY| Estimated peak process memory [MiB]                                1678

 -------------------------------------------------------------------------------
 -                                                                             -
 -                         MESSAGE PASSING PERFORMANCE                         -
 -                                                                             -
 -------------------------------------------------------------------------------

 ROUTINE             CALLS      AVE VOLUME [Bytes]
 MP_Group              480
 MP_Bcast            11682                 993178.
 MP_Allreduce        84696                 675740.
 MP_Sync                76
 MP_Alltoall         47868                3373491.
 MP_ISendRecv       420200                  58320.
 MP_Wait           2667897
 MP_comm_split          30
 MP_ISend          2043781                  11893.
 MP_IRecv          2036148                  11875.
 MP_Memory          753548
 -------------------------------------------------------------------------------


 -------------------------------------------------------------------------------
 -                                                                             -
 -                           R E F E R E N C E S                               -
 -                                                                             -
 -------------------------------------------------------------------------------
 
 CP2K version 6.1, the CP2K developers group (2018).
 CP2K is freely available from https://www.cp2k.org/ .

 Schuett, Ole; Messmer, Peter; Hutter, Juerg; VandeVondele, Joost. 
 Electronic Structure Calculations on Graphics Processing Units, John Wiley & Sons, Ltd, 173-190 (2016). 
 GPU-Accelerated Sparse Matrix-Matrix Multiplication for Linear Scaling Density Functional Theory.
 http://dx.doi.org/10.1002/9781118670712.ch8


 Borstnik, U; VandeVondele, J; Weber, V; Hutter, J. 
 PARALLEL COMPUTING, 40 (5-6), 47-58 (2014). 
 Sparse matrix multiplication: The distributed block-compressed sparse
 row library.
 http://dx.doi.org/10.1016/j.parco.2014.03.012


 Hutter, J; Iannuzzi, M; Schiffmann, F; VandeVondele, J. 
 WILEY INTERDISCIPLINARY REVIEWS-COMPUTATIONAL MOLECULAR SCIENCE, 4 (1), 15-25 (2014). 
 CP2K: atomistic simulations of condensed matter systems.
 http://dx.doi.org/10.1002/wcms.1159


 Laino, T; Mohamed, F; Laio, A; Parrinello, M. 
 JOURNAL OF CHEMICAL THEORY AND COMPUTATION, 1 (6), 1176-1184 (2005). 
 An efficient real space multigrid QM/MM electrostatic coupling.
 http://dx.doi.org/10.1021/ct050123f


 Krack, M. 
 THEORETICAL CHEMISTRY ACCOUNTS, 114 (1-3), 145-152 (2005). 
 Pseudopotentials for H to Kr optimized for gradient-corrected
 exchange-correlation functionals.
 http://dx.doi.org/10.1007/s00214-005-0655-y


 VandeVondele, J; Krack, M; Mohamed, F; Parrinello, M; Chassaing, T;
 Hutter, J. COMPUTER PHYSICS COMMUNICATIONS, 167 (2), 103-128 (2005). 
 QUICKSTEP: Fast and accurate density functional calculations using a
 mixed Gaussian and plane waves approach.
 http://dx.doi.org/10.1016/j.cpc.2004.12.014


 Frigo, M; Johnson, SG. 
 PROCEEDINGS OF THE IEEE, 93 (2), 216-231 (2005). 
 The design and implementation of FFTW3.
 http://dx.doi.org/10.1109/JPROC.2004.840301


 Kolafa, J. 
 JOURNAL OF COMPUTATIONAL CHEMISTRY, 25 (3), 335-342 (2004). 
 Time-reversible always stable predictor-corrector method for molecular dynamics of polarizable molecules.
 http://dx.doi.org/10.1002/jcc.10385


 VandeVondele, J; Hutter, J. 
 JOURNAL OF CHEMICAL PHYSICS, 118 (10), 4365-4369 (2003). 
 An efficient orbital transformation method for electronic structure
 calculations.
 http://dx.doi.org/10.1063/1.1543154


 Hartwigsen, C; Goedecker, S; Hutter, J. 
 PHYSICAL REVIEW B, 58 (7), 3641-3662 (1998). 
 Relativistic separable dual-space Gaussian pseudopotentials from H to Rn.
 http://dx.doi.org/10.1103/PhysRevB.58.3641


 Lippert, G; Hutter, J; Parrinello, M. 
 MOLECULAR PHYSICS, 92 (3), 477-487 (1997). 
 A hybrid Gaussian and plane wave density functional scheme.
 http://dx.doi.org/10.1080/002689797170220


 Goedecker, S; Teter, M; Hutter, J. 
 PHYSICAL REVIEW B, 54 (3), 1703-1710 (1996). 
 Separable dual-space Gaussian pseudopotentials.
 http://dx.doi.org/10.1103/PhysRevB.54.1703


 ESSMANN, U; PERERA, L; BERKOWITZ, ML; DARDEN, T; LEE, H; PEDERSEN, LG. 
 JOURNAL OF CHEMICAL PHYSICS, 103 (19), 8577-8593 (1995). 
 A SMOOTH PARTICLE MESH EWALD METHOD.
 http://dx.doi.org/10.1063/1.470117


 BECKE, AD. PHYSICAL REVIEW A, 38 (6), 3098-3100 (1988). 
 DENSITY-FUNCTIONAL EXCHANGE-ENERGY APPROXIMATION WITH CORRECT
 ASYMPTOTIC-BEHAVIOR.
 http://dx.doi.org/10.1103/PhysRevA.38.3098


 LEE, CT; YANG, WT; PARR, RG. 
 PHYSICAL REVIEW B, 37 (2), 785-789 (1988). 
 DEVELOPMENT OF THE COLLE-SALVETTI CORRELATION-ENERGY FORMULA INTO A
 FUNCTIONAL OF THE ELECTRON-DENSITY.
 http://dx.doi.org/10.1103/PhysRevB.37.785


 NOSE, S. JOURNAL OF CHEMICAL PHYSICS, 81 (1), 511-519 (1984). 
 A UNIFIED FORMULATION OF THE CONSTANT TEMPERATURE MOLECULAR-DYNAMICS
 METHODS.
 http://dx.doi.org/10.1063/1.447334


 NOSE, S. MOLECULAR PHYSICS, 52 (2), 255-268 (1984). 
 A MOLECULAR-DYNAMICS METHOD FOR SIMULATIONS IN THE CANONICAL ENSEMBLE.
 http://dx.doi.org/10.1080/00268978400101201


 -------------------------------------------------------------------------------
 -                                                                             -
 -                                T I M I N G                                  -
 -                                                                             -
 -------------------------------------------------------------------------------
 SUBROUTINE                       CALLS  ASD         SELF TIME        TOTAL TIME
                                MAXIMUM       AVERAGE  MAXIMUM  AVERAGE  MAXIMUM
 CP2K                                 1  1.0    0.953    1.064 2826.011 2826.137
 qs_mol_dyn_low                       1  2.0    0.007    0.009 2814.834 2815.165
 velocity_verlet                     40  3.0    0.077    0.081 2698.964 2699.094
 qs_forces                           41  4.0    0.004    0.005  993.813  993.854
 qmmm_forces                         41  4.0    0.188    0.214  973.765  973.813
 qmmm_forces_with_gaussian           41  5.0    0.488    0.641  932.710  943.800
 qs_energies                         41  5.0    0.002    0.002  940.034  940.073
 scf_env_do_scf                      41  6.0    0.002    0.009  915.882  915.923
 scf_env_do_scf_inner_loop          509  6.9    0.015    0.042  862.539  862.578
 pw_restrict_s3                     123  6.0  655.214  674.430  835.961  847.495
 qmmm_el_coupling                    41  4.0    0.002    0.002  826.695  836.312
 qmmm_elec_with_gaussian             41  5.0    0.239    0.387  826.618  836.243
 qmmm_elec_with_gaussian:spline      41  6.0    0.000    0.000  715.057  724.727
 pw_prolongate_s3                   123  7.0  554.276  567.705  715.057  724.727
 rebuild_ks_matrix                  550  8.7    0.001    0.002  724.455  724.633
 qs_ks_build_kohn_sham_matrix       550  9.7    0.095    0.112  724.453  724.632
 pw_transfer                      10901 12.2    0.786    1.140  704.783  717.099
 fft_wrap_pw1pw2                   9596 13.3    0.121    0.170  698.444  710.873
 fft_wrap_pw1pw2_150               6132 14.5   40.198   41.195  681.951  694.868
 qs_ks_update_qs_env                551  7.9    0.004    0.005  670.881  671.047
 fft3d_ps                          9596 15.3  205.217  238.592  580.264  595.311
 qs_vxc_create                      550 10.7    0.015    0.021  498.116  498.303
 xc_vxc_pw_create                   550 11.7    4.669    5.829  498.101  498.283
 mp_alltoall_z22v                  9596 17.3  321.493  334.406  321.493  334.406
 xc_rho_set_and_dset_create         550 12.7    5.577    7.967  241.245  255.971
 qs_rho_update_rho                  550  8.0    0.003    0.003  220.598  220.611
 calculate_rho_elec                 550  9.0    1.256   10.637  220.595  220.608
 x_to_yz                           5114 16.7   34.302   45.318  208.580  212.577
 density_rs2pw                      550 10.0    0.046    0.060  205.226  209.497
 yz_to_x                           4482 15.9   18.922   21.430  166.137  177.105
 pw_zero                          14326  7.5  135.354  143.751  135.354  143.751
 sum_up_and_integrate               550 10.7    1.331    1.759  140.408  140.785
 integrate_v_rspace                 550 11.7    0.457    5.571  139.076  139.581
 rs_pw_transfer                    4646 12.1    0.072    0.106  135.245  136.542
 potential_pw2rs                    550 12.7    0.083    0.106  132.983  133.616
 pw_axpy                          12600  8.9  116.308  122.940  116.308  122.940
 mp_sum_dm3                         205  6.0  122.285  122.696  122.285  122.696
 add_coarse2fine                    123  8.0   66.971   68.300   66.972   68.302
 add_fine2coarse                    123  7.0   65.800   66.503   65.800   66.503
 -------------------------------------------------------------------------------

 The number of warnings for this run is : 1
 
 -------------------------------------------------------------------------------
  **** **** ******  **  PROGRAM ENDED AT                 2019-03-13 12:23:23.415
 ***** ** ***  *** **   PROGRAM RAN ON                                  nid02315
 **    ****   ******    PROGRAM RAN BY                                  fionabio
 ***** **    ** ** **   PROGRAM PROCESS ID                                 17272
  **** **  *******  **  PROGRAM STOPPED IN /fs3/d118/d118/fionabio/BioExcel2/cp2
                                           k_benchmarks/QMMM/QM/8_nodes/test-1
Experiment data file written:
/fs3/d118/d118/fionabio/BioExcel2/cp2k_benchmarks/QMMM/QM/8_nodes/test-1/cp2k.psmp+samp+17272-2315s.xf
Application 33895741 resources: utime ~494660s, stime ~50281s, Rss ~1797464, inblocks ~7084155, outblocks ~10536946
