CrayPat/X:  Version 6.4.6 Revision 7d0d87c  02/20/17 09:52:37
 *******************************************************************************
 *                            RESTART INFORMATION                              *
 *******************************************************************************
 *                                                                             *
 *    RESTART FILE NAME: NPT-1_5000.restart                                    *
 *                                                                             *
 * RESTARTED QUANTITIES:                                                       *
 *                       CELL                                                  *
 *                       COORDINATES                                           *
 *                       RANDOM NUMBER GENERATOR                               *
 *                       VELOCITIES                                            *
 *                       MD AVERAGES                                           *
 *                       REAL TIME PROPAGATION                                 *
 *                       PINT BEAD POSITIONS                                   *
 *                       PINT BEAD VELOCITIES                                  *
 *                       PINT NOSE THERMOSTAT                                  *
 *                       PINT GLE THERMOSTAT                                   *
 *                       HELIUM BEAD POSITIONS                                 *
 *                       HELIUM PERMUTATION STATE                              *
 *                       HELIUM FORCES ON SOLUTE                               *
 *                       HELIUM RNG STATE                                      *
 *******************************************************************************

 DBCSR| Multiplication driver                                               XSMM
 DBCSR| Multrec recursion limit                                              512
 DBCSR| Multiplication stack size                                           1000
 DBCSR| Maximum elements for images                                    UNLIMITED
 DBCSR| Multiplicative factor virtual images                                   1
 DBCSR| Multiplication size stacks                                             3
 DBCSR| Number of 3D layers                                               SINGLE
 DBCSR| Use MPI memory allocation                                              T
 DBCSR| Use RMA algorithm                                                      F
 DBCSR| Use Communication thread                                               T
 DBCSR| Communication thread load                                             68


  **** **** ******  **  PROGRAM STARTED AT               2019-03-06 11:22:40.046
 ***** ** ***  *** **   PROGRAM STARTED ON                              nid00261
 **    ****   ******    PROGRAM STARTED BY                              fionabio
 ***** **    ** ** **   PROGRAM PROCESS ID                                 38491
  **** **  *******  **  PROGRAM STARTED IN /fs3/d118/d118/fionabio/BioExcel2/cp2
                                           k_benchmarks/QMMM/MM/8_nodes/test-1

 CP2K| version string:                                          CP2K version 6.1
 CP2K| source code revision number:                                    svn:18464
 CP2K| cp2kflags: omp libint fftw3 libxc elpa=201605 elpa_qr parallel mpi3 scala
 CP2K|            pack xsmm libgrid has_no_shared_glibc max_contr=4 statm_resident plumed2
 CP2K| is freely available from                            https://www.cp2k.org/
 CP2K| Program compiled at                          Fri Feb 15 14:30:53 GMT 2019
 CP2K| Program compiled on                                            eslogin007
 CP2K| Program compiled for                                       ARCHER_craypat
 CP2K| Data directory path                     /work/y07/y07/cp2k/6.1.18464/data
 CP2K| Input file name                                                  qmmm.inp

 GLOBAL| Force Environment number                                              1
 GLOBAL| Basis set file name                                           BASIS_SET
 GLOBAL| Potential file name                                           POTENTIAL
 GLOBAL| MM Potential file name                                     MM_POTENTIAL
 GLOBAL| Coordinate file name                                      __STD_INPUT__
 GLOBAL| Method name                                                        CP2K
 GLOBAL| Project name                                                       QMMM
 GLOBAL| Preferred FFT library                                             FFTW3
 GLOBAL| Preferred diagonalization lib.                                       SL
 GLOBAL| Run type                                                             MD
 GLOBAL| All-to-all communication in single precision                          F
 GLOBAL| FFTs using library dependent lengths                                  F
 GLOBAL| Global print level                                                  LOW
 GLOBAL| Total number of message passing processes                            32
 GLOBAL| Number of threads for this process                                    6
 GLOBAL| This output is from process                                           0
 GLOBAL| CPU model name :  Intel(R) Xeon(R) CPU E5-2697 v2 @ 2.70GHz

 MEMORY| system memory details [Kb]
 MEMORY|                        rank 0           min           max       average
 MEMORY| MemTotal             66072152      66072152      66072152      66072152
 MEMORY| MemFree              62447320      62391820      62447320      62408284
 MEMORY| Buffers                     0             0             0             0
 MEMORY| Cached                 277160        272128        277160        272894
 MEMORY| Slab                   263504        262820        268048        264267
 MEMORY| SReclaimable             8112          7964          8180          8045
 MEMORY| MemLikelyFree        62732592      62672280      62732592      62689223



                      ************* ******** ***********   
                     ************* **********************  
                     ****     **** ****      ***********   
                     ******** ****  *******     ****       
                     *******  ****   *******   ****        
                     ****     ****       ****  ****        
                     ****     **** **********  ****        
                      ****     **** ********    ****       
                     FRONTIERS IN SIMULATION TECHNOLOGY    
                                                           
                        C.J. Mundy, S. Balasubramanian,    
                     Ken Bagchi, J. Hutter, Ari Seitsonen  
                      IFW Kuo, T. Laino, J. VandeVondele   
                                 Version 1.0               

                                                           


 EWALD| Summation is done by:                                               SPME
 EWALD| Alpha parameter [       ANGSTROM^-1]                              0.4000
 EWALD| Real Space Cutoff [          ANGSTROM]                            8.4348
 EWALD| G-space max. Miller index                         80        80        80
 EWALD| Spline interpolation order                                             6

 FORCEFIELD| WARNING: A non Critical ForceField parameter is missing! CP2K GOES!
 FORCEFIELD| Non critical parameters are:Urey-Bradley,Torsions,Impropers, Opbends and 1-4
 FORCEFIELD| All missing parameters will not contribute to the potential energy!
 FORCEFIELD| Activate the print key FF_INFO to have a list of missing parameters

 CHARGE_INFO| Total Charge of the Classical System:                     0.000000

 SPLINE_INFO| Generating 56953 splines for NONBONDED14 interactions 
              Due to 337 different atomic kinds
  ...5695  ...11390  ...17085  ...22780  ...28475  ...34170  ...39865  ...45560  ...51255  ...56950
 SPLINE_INFO| Number of unique splines computed:            137
 SPLINE_INFO| Done

 SPLINE_INFO| Generating 56953 splines for NONBONDED interactions 
              Due to 337 different atomic kinds
  ...5695  ...11390  ...17085  ...22780  ...28475  ...34170  ...39865  ...45560  ...51255  ...56950
 SPLINE_INFO| Number of unique splines computed:            137
 SPLINE_INFO| Done

 *******************************************************************************
 *******************************************************************************
 **                                                                           **
 **     #####                         ##              ##                      **
 **    ##   ##            ##          ##              ##                      **
 **   ##     ##                       ##            ######                    **
 **   ##     ##  ##   ##  ##   #####  ##  ##   ####   ##    #####    #####    **
 **   ##     ##  ##   ##  ##  ##      ## ##   ##      ##   ##   ##  ##   ##   **
 **   ##  ## ##  ##   ##  ##  ##      ####     ###    ##   ######   ######    **
 **    ##  ###   ##   ##  ##  ##      ## ##      ##   ##   ##       ##        **
 **     #######   #####   ##   #####  ##  ##  ####    ##    #####   ##        **
 **           ##                                                    ##        **
 **                                                                           **
 **                                                ... make the atoms dance   **
 **                                                                           **
 **            Copyright (C) by CP2K developers group (2000 - 2018)           **
 **                                                                           **
 *******************************************************************************


 TOTAL NUMBERS AND MAXIMUM NUMBERS

  Total number of            - Atomic kinds:                                   5
                             - Atoms:                                         22
                             - Shell sets:                                    44
                             - Shells:                                        94
                             - Primitive Cartesian functions:                110
                             - Cartesian basis functions:                    236
                             - Spherical basis functions:                    222

  Maximum angular momentum of- Orbital basis functions:                        2
                             - Local part of the GTH pseudopotential:          2
                             - Non-local part of the GTH pseudopotential:      0


 SCF PARAMETERS         Density guess:                                    ATOMIC
                        --------------------------------------------------------
                        max_scf:                                              30
                        max_scf_history:                                       0
                        max_diis:                                              4
                        --------------------------------------------------------
                        eps_scf:                                        1.00E-06
                        eps_scf_history:                                0.00E+00
                        eps_diis:                                       1.00E-01
                        eps_eigval:                                     1.00E-05
                        --------------------------------------------------------
                        level_shift [a.u.]:                                 0.00
                        --------------------------------------------------------
                        Outer loop SCF in use 
                        No variables optimised in outer loop
                        eps_scf                                         1.00E-06
                        max_scf                                               10
                        No outer loop optimization
                        step_size                                       5.00E-01

 *******************************************************************************
 *******************************************************************************
 **                                                                           **
 **             #######  ##     ## ##     ## ##     ##                        **
 **            ##     ## ###   ### ###   ### ###   ###                        **
 **            ##     ## #### #### #### #### #### ####                        **
 **            ##     ## ## ### ## ## ### ## ## ### ##                        **
 **            ##  ## ## ##     ## ##     ## ##     ##                        **
 **            ##    ##  ##     ## ##     ## ##     ##  T.Laino and F.Mohamed **
 **             ##### ## ##     ## ##     ## ##     ##  2005 - 2015           **
 **                                                                           **
 **                                                     Calculation Started.. **
 *******************************************************************************
 *******************************************************************************

 MD| Molecular Dynamics Protocol 
 MD| Ensemble Type                                                           NVT
 MD| Number of Time Steps                                                      5
 MD| Time Step [fs]                                                         1.00
 MD| Temperature [K]                                                      298.00
 MD| Temperature tolerance [K]                                              0.00
 MD| Print MD information every                                        1 step(s)
 MD| File type     Print frequency[steps]                             File names
 MD| Coordinates          100                                     QMMM-pos-1.xyz
 MD| Velocities             1                                     QMMM-vel-1.xyz
 MD| Energies               1                                        QMMM-1.ener
 MD| Dump                1000                                     QMMM-1.restart

 ROT| Rotational Analysis Info 
 ROT| Principal axes and moments of inertia in atomic units:
 ROT|                                1                 2                 3
 ROT| EIGENVALUES            0.783752064E+12   0.946041841E+12   0.987014226E+12
 ROT|      X                    -0.999672383      -0.015945217       0.020021921
 ROT|      Y                    -0.017525004       0.996529037      -0.081380298
 ROT|      Z                     0.018654799       0.081704521       0.996481997
 ROT| Numer of Rotovibrational vectors:     6

 Calculation of degrees of freedom
                                                      Number of atoms:     30928
                                 Number of Intramolecular constraints:         0
                                 Number of Intermolecular constraints:         0
                                  Invariants(translation + rotations):         3
                                                   Degrees of freedom:     92781


 Restraints Information
                                  Number of Intramolecular restraints:         0
                                  Number of Intermolecular restraints:         0

 THERMOSTAT| Thermostat Info for PARTICLES
 THERMOSTAT| Type of thermostat                               Nose-Hoover-Chains
 THERMOSTAT| Nose-Hoover-Chain length                                          3
 THERMOSTAT| Nose-Hoover-Chain time constant [  fs]                       100.00
 THERMOSTAT| Order of Yoshida integrator                                       3
 THERMOSTAT| Number of multiple time steps                                     2
 THERMOSTAT| Initial Potential Energy                                   0.000000
 THERMOSTAT| Initial Kinetic Energy                                     0.000472
 THERMOSTAT| End of Thermostat Info for PARTICLES

 ************************** Velocities initialization **************************
 Initial Temperature                                                    299.40 K
 COM velocity:            0.000000000000      0.000000000000     -0.000000000000
 *******************************************************************************


  Translating the system in order to center the QM fragment in the QM box.

 Number of electrons:                                                         70
 Number of occupied orbitals:                                                 35
 Number of molecular orbitals:                                                35

 Number of orbital functions:                                                222
 Number of independent orbital functions:                                    222

 Extrapolation method: initial_guess


 SCF WAVEFUNCTION OPTIMIZATION

  ----------------------------------- OT ---------------------------------------
  Minimizer      : DIIS                : direct inversion
                                         in the iterative subspace
                                         using   7 DIIS vectors
                                         safer DIIS on
  Preconditioner : FULL_SINGLE_INVERSE : inversion of 
                                         H + eS - 2*(Sc)(c^T*H*c+const)(Sc)^T
  Precond_solver : DEFAULT
  stepsize       :    0.08000000                  energy_gap     :    0.08000000
  eps_taylor     :   0.10000E-15                  max_taylor     :             4
  ----------------------------------- OT ---------------------------------------

  Step     Update method      Time    Convergence         Total energy    Change
  ------------------------------------------------------------------------------
     1 OT DIIS     0.80E-01    1.8     0.09329988      -108.0952724265 -1.08E+02
     2 OT DIIS     0.80E-01    2.1     0.06536893      -111.6363046606 -3.54E+00
     3 OT DIIS     0.80E-01    2.1     0.04290678      -113.1681812579 -1.53E+00
     4 OT DIIS     0.80E-01    2.0     0.02833519      -114.3133057506 -1.15E+00
     5 OT DIIS     0.80E-01    2.1     0.01818393      -114.6001423250 -2.87E-01
     6 OT DIIS     0.80E-01    2.0     0.01230836      -114.8486082494 -2.48E-01
     7 OT DIIS     0.80E-01    2.1     0.00787224      -114.9377900589 -8.92E-02
     8 OT DIIS     0.80E-01    2.0     0.00523739      -114.9888305498 -5.10E-02
     9 OT DIIS     0.80E-01    2.1     0.00372689      -115.0169117428 -2.81E-02
    10 OT DIIS     0.80E-01    2.1     0.00272520      -115.0331860292 -1.63E-02
    11 OT DIIS     0.80E-01    2.1     0.00194499      -115.0415206879 -8.33E-03
    12 OT DIIS     0.80E-01    2.1     0.00142275      -115.0465877882 -5.07E-03
    13 OT DIIS     0.80E-01    2.0     0.00114142      -115.0496410182 -3.05E-03
    14 OT DIIS     0.80E-01    2.1     0.00092933      -115.0513788761 -1.74E-03
    15 OT DIIS     0.80E-01    2.0     0.00076838      -115.0528256360 -1.45E-03
    16 OT DIIS     0.80E-01    2.1     0.00066158      -115.0538076173 -9.82E-04
    17 OT DIIS     0.80E-01    2.1     0.00057756      -115.0545612003 -7.54E-04
    18 OT DIIS     0.80E-01    2.0     0.00051171      -115.0552317464 -6.71E-04
    19 OT DIIS     0.80E-01    2.1     0.00045778      -115.0557975367 -5.66E-04
    20 OT DIIS     0.80E-01    2.0     0.00039297      -115.0563685150 -5.71E-04
    21 OT DIIS     0.80E-01    2.0     0.00034178      -115.0568054002 -4.37E-04
    22 OT DIIS     0.80E-01    2.1     0.00029181      -115.0571573510 -3.52E-04
    23 OT DIIS     0.80E-01    2.0     0.00024127      -115.0574118836 -2.55E-04
    24 OT DIIS     0.80E-01    2.0     0.00019963      -115.0575813772 -1.69E-04
    25 OT DIIS     0.80E-01    2.1     0.00016168      -115.0576849284 -1.04E-04
    26 OT DIIS     0.80E-01    2.0     0.00013086      -115.0577525247 -6.76E-05
    27 OT DIIS     0.80E-01    2.1     0.00010971      -115.0577861420 -3.36E-05
    28 OT DIIS     0.80E-01    2.0     0.00009005      -115.0578090015 -2.29E-05
    29 OT DIIS     0.80E-01    2.1     0.00007659      -115.0578235410 -1.45E-05
    30 OT DIIS     0.80E-01    2.0     0.00006594      -115.0578328090 -9.27E-06

  Leaving inner SCF loop after reaching    30 steps.


  Electronic density on regular grids:        -69.9999999948        0.0000000052
  Core density on regular grids:               69.9999999957       -0.0000000043
  Total charge density on r-space grids:        0.0000000009
  Total charge density g-space grids:           0.0000000009

  Overlap energy of the core charge distribution:               0.00000607847608
  Self energy of the core charge distribution:               -278.09582761455005
  Core Hamiltonian energy:                                     84.62163968033677
  Hartree energy:                                             112.36092013895171
  Exchange-correlation energy:                                -31.95866797917182
  QM/MM Electrostatic energy:                                  -1.98590311306314

  Total energy:                                              -115.05783280902043

  outer SCF iter =    1 RMS gradient =   0.66E-04 energy =       -115.0578328090

  ----------------------------------- OT ---------------------------------------
  Minimizer      : DIIS                : direct inversion
                                         in the iterative subspace
                                         using   7 DIIS vectors
                                         safer DIIS on
  Preconditioner : FULL_SINGLE_INVERSE : inversion of 
                                         H + eS - 2*(Sc)(c^T*H*c+const)(Sc)^T
  Precond_solver : DEFAULT
  stepsize       :    0.08000000                  energy_gap     :    0.08000000
  eps_taylor     :   0.10000E-15                  max_taylor     :             4
  ----------------------------------- OT ---------------------------------------

  Step     Update method      Time    Convergence         Total energy    Change
  ------------------------------------------------------------------------------
     1 OT DIIS     0.80E-01    4.2     0.00016332      -115.0578389705 -6.16E-06
     2 OT DIIS     0.80E-01    2.0     0.00011102      -115.0578519316 -1.30E-05
     3 OT DIIS     0.80E-01    2.0     0.00012615      -115.0578578804 -5.95E-06
     4 OT DIIS     0.80E-01    2.0     0.00006132      -115.0578619525 -4.07E-06
     5 OT DIIS     0.80E-01    2.0     0.00003690      -115.0578631316 -1.18E-06
     6 OT DIIS     0.80E-01    2.0     0.00002163      -115.0578635550 -4.23E-07
     7 OT DIIS     0.80E-01    2.0     0.00001272      -115.0578637036 -1.49E-07
     8 OT DIIS     0.80E-01    2.0     0.00000643      -115.0578637424 -3.88E-08
     9 OT DIIS     0.80E-01    2.0     0.00000390      -115.0578637514 -9.01E-09
    10 OT DIIS     0.80E-01    2.0     0.00000199      -115.0578637547 -3.31E-09
    11 OT DIIS     0.80E-01    2.0     0.00000136      -115.0578637562 -1.50E-09
    12 OT DIIS     0.80E-01    2.0     0.00000139      -115.0578637565 -3.35E-10
    13 OT DIIS     0.80E-01    2.0     0.00000073      -115.0578637568 -2.24E-10

  *** SCF run converged in    13 steps ***


  Electronic density on regular grids:        -69.9999999948        0.0000000052
  Core density on regular grids:               69.9999999957       -0.0000000043
  Total charge density on r-space grids:        0.0000000009
  Total charge density g-space grids:           0.0000000009

  Overlap energy of the core charge distribution:               0.00000607847608
  Self energy of the core charge distribution:               -278.09582761455005
  Core Hamiltonian energy:                                     84.62090578889479
  Hartree energy:                                             112.36149196416918
  Exchange-correlation energy:                                -31.95841753534073
  QM/MM Electrostatic energy:                                  -1.98602243840285

  Total energy:                                              -115.05786375675358

  outer SCF iter =    2 RMS gradient =   0.73E-06 energy =       -115.0578637568
  outer SCF loop converged in   2 iterations or   43 steps


 ENERGY| Total FORCE_EVAL ( QMMM ) energy (a.u.):           -253.053219646809055


 MD_ENERGIES| Initialization proceeding


 ******************************** GO CP2K GO! **********************************
 INITIAL POTENTIAL ENERGY[hartree]     =                     -0.253053219647E+03
 TOTAL INITIAL KINETIC ENERGY[hartree] =                      0.439844103254E+02
 QM INITIAL KINETIC ENERGY[hartree]    =                      0.350675982115E-01
 TOTAL INITIAL TEMPERATURE[K]          =                                 299.397
 QM INITIAL TEMPERATURE[K]             =                                 335.559
 INITIAL VOLUME[bohr^3]                =                      0.218187828648E+07
 INITIAL CELL LNTHS[bohr]   =      0.1449600E+03   0.1268275E+03   0.1186776E+03
 INITIAL CELL ANGLS[deg]    =      0.9000000E+02   0.9000000E+02   0.9000000E+02
 ******************************** GO CP2K GO! **********************************

  Translating the system in order to center the QM fragment in the QM box.

 Number of electrons:                                                         70
 Number of occupied orbitals:                                                 35
 Number of molecular orbitals:                                                35

 Number of orbital functions:                                                222
 Number of independent orbital functions:                                    222

 Extrapolation method: ASPC


 SCF WAVEFUNCTION OPTIMIZATION

  ----------------------------------- OT ---------------------------------------
  Minimizer      : DIIS                : direct inversion
                                         in the iterative subspace
                                         using   7 DIIS vectors
                                         safer DIIS on
  Preconditioner : FULL_SINGLE_INVERSE : inversion of 
                                         H + eS - 2*(Sc)(c^T*H*c+const)(Sc)^T
  Precond_solver : DEFAULT
  stepsize       :    0.08000000                  energy_gap     :    0.08000000
  eps_taylor     :   0.10000E-15                  max_taylor     :             4
  ----------------------------------- OT ---------------------------------------

  Step     Update method      Time    Convergence         Total energy    Change
  ------------------------------------------------------------------------------
     1 OT DIIS     0.80E-01    1.7     0.00133217      -115.1405570371 -1.15E+02
     2 OT DIIS     0.80E-01    2.1     0.00075553      -115.1412651190 -7.08E-04
     3 OT DIIS     0.80E-01    2.1     0.00066324      -115.1414475108 -1.82E-04
     4 OT DIIS     0.80E-01    2.0     0.00055435      -115.1415410002 -9.35E-05
     5 OT DIIS     0.80E-01    2.0     0.00021491      -115.1415887323 -4.77E-05
     6 OT DIIS     0.80E-01    2.0     0.00009071      -115.1415993706 -1.06E-05
     7 OT DIIS     0.80E-01    2.0     0.00005020      -115.1416021810 -2.81E-06
     8 OT DIIS     0.80E-01    2.0     0.00003357      -115.1416027565 -5.75E-07
     9 OT DIIS     0.80E-01    2.0     0.00002039      -115.1416029469 -1.90E-07
    10 OT DIIS     0.80E-01    2.0     0.00000889      -115.1416030183 -7.14E-08
    11 OT DIIS     0.80E-01    2.0     0.00000519      -115.1416030392 -2.10E-08
    12 OT DIIS     0.80E-01    2.0     0.00000465      -115.1416030452 -5.94E-09
    13 OT DIIS     0.80E-01    2.0     0.00000338      -115.1416030478 -2.64E-09
    14 OT DIIS     0.80E-01    2.0     0.00000152      -115.1416030495 -1.72E-09
    15 OT DIIS     0.80E-01    2.0     0.00000084      -115.1416030501 -5.52E-10

  *** SCF run converged in    15 steps ***


  Electronic density on regular grids:        -69.9999999990        0.0000000010
  Core density on regular grids:               69.9999999957       -0.0000000043
  Total charge density on r-space grids:       -0.0000000033
  Total charge density g-space grids:          -0.0000000033

  Overlap energy of the core charge distribution:               0.00000658232499
  Self energy of the core charge distribution:               -278.09582761455005
  Core Hamiltonian energy:                                     84.63577155751166
  Hartree energy:                                             112.35370339586251
  Exchange-correlation energy:                                -31.96443455399088
  QM/MM Electrostatic energy:                                  -2.07082241723607

  Total energy:                                              -115.14160305007785

  outer SCF iter =    1 RMS gradient =   0.84E-06 energy =       -115.1416030501
  outer SCF loop converged in   1 iterations or   15 steps


 ENERGY| Total FORCE_EVAL ( QMMM ) energy (a.u.):           -252.908036766243356


 *******************************************************************************
 ENSEMBLE TYPE                =                                              NVT
 STEP NUMBER                  =                                                1
 TIME [fs]                    =                                         1.000000
 CONSERVED QUANTITY [hartree] =                              -0.209034371586E+03

                                              INSTANTANEOUS             AVERAGES
 CPU TIME [s]                 =                      184.38               184.38
 ENERGY DRIFT PER ATOM [K]    =          0.346791377996E+00   0.000000000000E+00
 POTENTIAL ENERGY[hartree]    =         -0.252908036766E+03  -0.252908036766E+03
 TOTAL KINETIC ENERGY[hartree]=          0.438702913439E+02   0.438702913439E+02
 QM KINETIC ENERGY[hartree]   =          0.345760913909E-01   0.345760913909E-01
 TOTAL TEMPERATURE[K]         =                     298.620              298.620
 QM TEMPERATURE[K]            =                     330.856              330.856
 *******************************************************************************


  Translating the system in order to center the QM fragment in the QM box.

 Number of electrons:                                                         70
 Number of occupied orbitals:                                                 35
 Number of molecular orbitals:                                                35

 Number of orbital functions:                                                222
 Number of independent orbital functions:                                    222

 Extrapolation method: ASPC


 SCF WAVEFUNCTION OPTIMIZATION

  ----------------------------------- OT ---------------------------------------
  Minimizer      : DIIS                : direct inversion
                                         in the iterative subspace
                                         using   7 DIIS vectors
                                         safer DIIS on
  Preconditioner : FULL_SINGLE_INVERSE : inversion of 
                                         H + eS - 2*(Sc)(c^T*H*c+const)(Sc)^T
  Precond_solver : DEFAULT
  stepsize       :    0.08000000                  energy_gap     :    0.08000000
  eps_taylor     :   0.10000E-15                  max_taylor     :             4
  ----------------------------------- OT ---------------------------------------

  Step     Update method      Time    Convergence         Total energy    Change
  ------------------------------------------------------------------------------
     1 OT DIIS     0.80E-01    1.7     0.00090529      -115.1980528567 -1.15E+02
     2 OT DIIS     0.80E-01    2.1     0.00050825      -115.1983563570 -3.04E-04
     3 OT DIIS     0.80E-01    2.1     0.00037309      -115.1984276110 -7.13E-05
     4 OT DIIS     0.80E-01    2.1     0.00017799      -115.1984714020 -4.38E-05
     5 OT DIIS     0.80E-01    2.0     0.00010391      -115.1984821780 -1.08E-05
     6 OT DIIS     0.80E-01    2.0     0.00008267      -115.1984841676 -1.99E-06
     7 OT DIIS     0.80E-01    2.0     0.00003133      -115.1984853780 -1.21E-06
     8 OT DIIS     0.80E-01    2.0     0.00001455      -115.1984856497 -2.72E-07
     9 OT DIIS     0.80E-01    2.0     0.00000835      -115.1984857142 -6.46E-08
    10 OT DIIS     0.80E-01    2.0     0.00000595      -115.1984857290 -1.48E-08
    11 OT DIIS     0.80E-01    2.0     0.00000338      -115.1984857369 -7.94E-09
    12 OT DIIS     0.80E-01    2.0     0.00000220      -115.1984857392 -2.29E-09
    13 OT DIIS     0.80E-01    2.0     0.00000129      -115.1984857403 -1.06E-09
    14 OT DIIS     0.80E-01    2.0     0.00000116      -115.1984857407 -3.96E-10
    15 OT DIIS     0.80E-01    2.0     0.00000072      -115.1984857409 -1.94E-10

  *** SCF run converged in    15 steps ***


  Electronic density on regular grids:        -70.0000000028       -0.0000000028
  Core density on regular grids:               69.9999999957       -0.0000000043
  Total charge density on r-space grids:       -0.0000000071
  Total charge density g-space grids:          -0.0000000071

  Overlap energy of the core charge distribution:               0.00000515643383
  Self energy of the core charge distribution:               -278.09582761455005
  Core Hamiltonian energy:                                     84.57410849716452
  Hartree energy:                                             112.39271086180310
  Exchange-correlation energy:                                -31.94617527396174
  QM/MM Electrostatic energy:                                  -2.12330736777269

  Total energy:                                              -115.19848574088306

  outer SCF iter =    1 RMS gradient =   0.72E-06 energy =       -115.1984857409
  outer SCF loop converged in   1 iterations or   15 steps


 ENERGY| Total FORCE_EVAL ( QMMM ) energy (a.u.):           -253.047482488437595


 *******************************************************************************
 ENSEMBLE TYPE                =                                              NVT
 STEP NUMBER                  =                                                2
 TIME [fs]                    =                                         2.000000
 CONSERVED QUANTITY [hartree] =                              -0.209059276819E+03

                                              INSTANTANEOUS             AVERAGES
 CPU TIME [s]                 =                       62.42               123.40
 ENERGY DRIFT PER ATOM [K]    =          0.925091414514E-01   0.462545707257E-01
 POTENTIAL ENERGY[hartree]    =         -0.253047482488E+03  -0.252977759627E+03
 TOTAL KINETIC ENERGY[hartree]=          0.439819059273E+02   0.439260986356E+02
 QM KINETIC ENERGY[hartree]   =          0.383698960293E-01   0.364729937101E-01
 TOTAL TEMPERATURE[K]         =                     299.380              299.000
 QM TEMPERATURE[K]            =                     367.159              349.007
 *******************************************************************************


  Translating the system in order to center the QM fragment in the QM box.

 Number of electrons:                                                         70
 Number of occupied orbitals:                                                 35
 Number of molecular orbitals:                                                35

 Number of orbital functions:                                                222
 Number of independent orbital functions:                                    222

 Extrapolation method: ASPC


 SCF WAVEFUNCTION OPTIMIZATION

  ----------------------------------- OT ---------------------------------------
  Minimizer      : DIIS                : direct inversion
                                         in the iterative subspace
                                         using   7 DIIS vectors
                                         safer DIIS on
  Preconditioner : FULL_SINGLE_INVERSE : inversion of 
                                         H + eS - 2*(Sc)(c^T*H*c+const)(Sc)^T
  Precond_solver : DEFAULT
  stepsize       :    0.08000000                  energy_gap     :    0.08000000
  eps_taylor     :   0.10000E-15                  max_taylor     :             4
  ----------------------------------- OT ---------------------------------------

  Step     Update method      Time    Convergence         Total energy    Change
  ------------------------------------------------------------------------------
     1 OT DIIS     0.80E-01    1.7     0.00051129      -115.2187605275 -1.15E+02
     2 OT DIIS     0.80E-01    2.1     0.00037936      -115.2188256302 -6.51E-05
     3 OT DIIS     0.80E-01    2.1     0.00017298      -115.2188490111 -2.34E-05
     4 OT DIIS     0.80E-01    2.0     0.00007705      -115.2188586174 -9.61E-06
     5 OT DIIS     0.80E-01    2.0     0.00004888      -115.2188609795 -2.36E-06
     6 OT DIIS     0.80E-01    2.1     0.00003492      -115.2188616425 -6.63E-07
     7 OT DIIS     0.80E-01    2.0     0.00001850      -115.2188618820 -2.40E-07
     8 OT DIIS     0.80E-01    2.0     0.00000848      -115.2188619455 -6.35E-08
     9 OT DIIS     0.80E-01    2.0     0.00000466      -115.2188619639 -1.84E-08
    10 OT DIIS     0.80E-01    2.0     0.00000378      -115.2188619674 -3.45E-09
    11 OT DIIS     0.80E-01    2.0     0.00000172      -115.2188619701 -2.73E-09
    12 OT DIIS     0.80E-01    2.0     0.00000113      -115.2188619708 -6.24E-10
    13 OT DIIS     0.80E-01    2.0     0.00000058      -115.2188619711 -3.30E-10

  *** SCF run converged in    13 steps ***


  Electronic density on regular grids:        -70.0000000050       -0.0000000050
  Core density on regular grids:               69.9999999957       -0.0000000043
  Total charge density on r-space grids:       -0.0000000093
  Total charge density g-space grids:          -0.0000000093

  Overlap energy of the core charge distribution:               0.00000398004733
  Self energy of the core charge distribution:               -278.09582761455005
  Core Hamiltonian energy:                                     84.46655168836085
  Hartree energy:                                             112.46374832337557
  Exchange-correlation energy:                                -31.91286959743822
  QM/MM Electrostatic energy:                                  -2.14046875087839

  Total energy:                                              -115.21886197108292

  outer SCF iter =    1 RMS gradient =   0.58E-06 energy =       -115.2188619711
  outer SCF loop converged in   1 iterations or   13 steps


 ENERGY| Total FORCE_EVAL ( QMMM ) energy (a.u.):           -253.178573117281417


 *******************************************************************************
 ENSEMBLE TYPE                =                                              NVT
 STEP NUMBER                  =                                                3
 TIME [fs]                    =                                         3.000000
 CONSERVED QUANTITY [hartree] =                              -0.209067487501E+03

                                              INSTANTANEOUS             AVERAGES
 CPU TIME [s]                 =                       58.11               101.64
 ENERGY DRIFT PER ATOM [K]    =          0.867813100275E-02   0.337290908180E-01
 POTENTIAL ENERGY[hartree]    =         -0.253178573117E+03  -0.253044697457E+03
 TOTAL KINETIC ENERGY[hartree]=          0.441018112154E+02   0.439846694955E+02
 QM KINETIC ENERGY[hartree]   =          0.417644786321E-01   0.382368220174E-01
 TOTAL TEMPERATURE[K]         =                     300.196              299.398
 QM TEMPERATURE[K]            =                     399.641              365.885
 *******************************************************************************


  Translating the system in order to center the QM fragment in the QM box.

 Number of electrons:                                                         70
 Number of occupied orbitals:                                                 35
 Number of molecular orbitals:                                                35

 Number of orbital functions:                                                222
 Number of independent orbital functions:                                    222

 Extrapolation method: ASPC


 SCF WAVEFUNCTION OPTIMIZATION

  ----------------------------------- OT ---------------------------------------
  Minimizer      : DIIS                : direct inversion
                                         in the iterative subspace
                                         using   7 DIIS vectors
                                         safer DIIS on
  Preconditioner : FULL_SINGLE_INVERSE : inversion of 
                                         H + eS - 2*(Sc)(c^T*H*c+const)(Sc)^T
  Precond_solver : DEFAULT
  stepsize       :    0.08000000                  energy_gap     :    0.08000000
  eps_taylor     :   0.10000E-15                  max_taylor     :             4
  ----------------------------------- OT ---------------------------------------

  Step     Update method      Time    Convergence         Total energy    Change
  ------------------------------------------------------------------------------
     1 OT DIIS     0.80E-01    1.7     0.00090370      -115.2193626944 -1.15E+02
     2 OT DIIS     0.80E-01    2.1     0.00054240      -115.2195826856 -2.20E-04
     3 OT DIIS     0.80E-01    2.1     0.00026857      -115.2196363195 -5.36E-05
     4 OT DIIS     0.80E-01    2.0     0.00012010      -115.2196563092 -2.00E-05
     5 OT DIIS     0.80E-01    2.0     0.00006242      -115.2196614466 -5.14E-06
     6 OT DIIS     0.80E-01    2.0     0.00004734      -115.2196626165 -1.17E-06
     7 OT DIIS     0.80E-01    2.0     0.00001937      -115.2196631476 -5.31E-07
     8 OT DIIS     0.80E-01    2.0     0.00000985      -115.2196632519 -1.04E-07
     9 OT DIIS     0.80E-01    2.0     0.00000493      -115.2196632839 -3.20E-08
    10 OT DIIS     0.80E-01    2.0     0.00000432      -115.2196632891 -5.19E-09
    11 OT DIIS     0.80E-01    2.0     0.00000170      -115.2196632931 -3.97E-09
    12 OT DIIS     0.80E-01    2.0     0.00000099      -115.2196632938 -7.15E-10

  *** SCF run converged in    12 steps ***


  Electronic density on regular grids:        -70.0000000026       -0.0000000026
  Core density on regular grids:               69.9999999957       -0.0000000043
  Total charge density on r-space grids:       -0.0000000068
  Total charge density g-space grids:          -0.0000000068

  Overlap energy of the core charge distribution:               0.00000350876719
  Self energy of the core charge distribution:               -278.09582761455005
  Core Hamiltonian energy:                                     84.35684982660194
  Hartree energy:                                             112.53782870208624
  Exchange-correlation energy:                                -31.87835291214227
  QM/MM Electrostatic energy:                                  -2.14016480452821

  Total energy:                                              -115.21966329376517

  outer SCF iter =    1 RMS gradient =   0.99E-06 energy =       -115.2196632938
  outer SCF loop converged in   1 iterations or   12 steps


 ENERGY| Total FORCE_EVAL ( QMMM ) energy (a.u.):           -253.198568063832681


 *******************************************************************************
 ENSEMBLE TYPE                =                                              NVT
 STEP NUMBER                  =                                                4
 TIME [fs]                    =                                         4.000000
 CONSERVED QUANTITY [hartree] =                              -0.209040805048E+03

                                              INSTANTANEOUS             AVERAGES
 CPU TIME [s]                 =                       56.19                90.27
 ENERGY DRIFT PER ATOM [K]    =          0.281105784445E+00   0.955732642249E-01
 POTENTIAL ENERGY[hartree]    =         -0.253198568064E+03  -0.253083165109E+03
 TOTAL KINETIC ENERGY[hartree]=          0.441454453140E+02   0.440248634502E+02
 QM KINETIC ENERGY[hartree]   =          0.422238257388E-01   0.392335729478E-01
 TOTAL TEMPERATURE[K]         =                     300.493              299.672
 QM TEMPERATURE[K]            =                     404.037              375.423
 *******************************************************************************


  Translating the system in order to center the QM fragment in the QM box.

 Number of electrons:                                                         70
 Number of occupied orbitals:                                                 35
 Number of molecular orbitals:                                                35

 Number of orbital functions:                                                222
 Number of independent orbital functions:                                    222

 Extrapolation method: ASPC


 SCF WAVEFUNCTION OPTIMIZATION

  ----------------------------------- OT ---------------------------------------
  Minimizer      : DIIS                : direct inversion
                                         in the iterative subspace
                                         using   7 DIIS vectors
                                         safer DIIS on
  Preconditioner : FULL_SINGLE_INVERSE : inversion of 
                                         H + eS - 2*(Sc)(c^T*H*c+const)(Sc)^T
  Precond_solver : DEFAULT
  stepsize       :    0.08000000                  energy_gap     :    0.08000000
  eps_taylor     :   0.10000E-15                  max_taylor     :             4
  ----------------------------------- OT ---------------------------------------

  Step     Update method      Time    Convergence         Total energy    Change
  ------------------------------------------------------------------------------
     1 OT DIIS     0.80E-01    1.7     0.00135593      -115.1185847261 -1.15E+02
     2 OT DIIS     0.80E-01    2.1     0.00096865      -115.1190110803 -4.26E-04
     3 OT DIIS     0.80E-01    2.0     0.00044994      -115.1191500304 -1.39E-04
     4 OT DIIS     0.80E-01    2.0     0.00020029      -115.1191937436 -4.37E-05
     5 OT DIIS     0.80E-01    2.0     0.00012376      -115.1192050443 -1.13E-05
     6 OT DIIS     0.80E-01    2.0     0.00008527      -115.1192079981 -2.95E-06
     7 OT DIIS     0.80E-01    2.0     0.00004183      -115.1192096348 -1.64E-06
     8 OT DIIS     0.80E-01    2.0     0.00002118      -115.1192100653 -4.31E-07
     9 OT DIIS     0.80E-01    2.0     0.00001643      -115.1192101905 -1.25E-07
    10 OT DIIS     0.80E-01    2.0     0.00000908      -115.1192102297 -3.92E-08
    11 OT DIIS     0.80E-01    2.0     0.00000513      -115.1192102508 -2.11E-08
    12 OT DIIS     0.80E-01    2.0     0.00000300      -115.1192102572 -6.45E-09
    13 OT DIIS     0.80E-01    2.0     0.00000193      -115.1192102561  1.11E-09
    14 OT DIIS     0.80E-01    2.0     0.00000160      -115.1192102566 -5.16E-10
    15 OT DIIS     0.80E-01    2.0     0.00000095      -115.1192102570 -4.08E-10

  *** SCF run converged in    15 steps ***


  Electronic density on regular grids:        -69.9999999987        0.0000000013
  Core density on regular grids:               69.9999999957       -0.0000000043
  Total charge density on r-space grids:       -0.0000000030
  Total charge density g-space grids:          -0.0000000030

  Overlap energy of the core charge distribution:               0.00000342899839
  Self energy of the core charge distribution:               -278.09582761455005
  Core Hamiltonian energy:                                     84.27560054169842
  Hartree energy:                                             112.59590063113316
  Exchange-correlation energy:                                -31.85292835388542
  QM/MM Electrostatic energy:                                  -2.04195889043194

  Total energy:                                              -115.11921025703742

  outer SCF iter =    1 RMS gradient =   0.95E-06 energy =       -115.1192102570
  outer SCF loop converged in   1 iterations or   15 steps


 ENERGY| Total FORCE_EVAL ( QMMM ) energy (a.u.):           -253.378752700584926


 *******************************************************************************
 ENSEMBLE TYPE                =                                              NVT
 STEP NUMBER                  =                                                5
 TIME [fs]                    =                                         5.000000
 CONSERVED QUANTITY [hartree] =                              -0.209067382041E+03

                                              INSTANTANEOUS             AVERAGES
 CPU TIME [s]                 =                       62.57                84.73
 ENERGY DRIFT PER ATOM [K]    =          0.975487596269E-02   0.784095865724E-01
 POTENTIAL ENERGY[hartree]    =         -0.253378752701E+03  -0.253142282627E+03
 TOTAL KINETIC ENERGY[hartree]=          0.442959262546E+02   0.440790760111E+02
 QM KINETIC ENERGY[hartree]   =          0.416148648301E-01   0.397098313242E-01
 TOTAL TEMPERATURE[K]         =                     301.517              300.041
 QM TEMPERATURE[K]            =                     398.210              379.981
 *******************************************************************************


 -------------------------------------------------------------------------------
 -                                                                             -
 -                                DBCSR STATISTICS                             -
 -                                                                             -
 -------------------------------------------------------------------------------
 COUNTER                                    TOTAL       BLAS       SMM       ACC
 flops     3 x     3 x     3                39852       0.0%    100.0%      0.0%
 flops     5 x     3 x     3               258030       0.0%    100.0%      0.0%
 flops    18 x     3 x     3               357048       0.0%    100.0%      0.0%
 flops     3 x     3 x    23               374256       0.0%    100.0%      0.0%
 flops     3 x     3 x    26               423072       0.0%    100.0%      0.0%
 flops     3 x     3 x    32               425088       0.0%    100.0%      0.0%
 flops     3 x    32 x     3               425088       0.0%    100.0%      0.0%
 flops    32 x     3 x     3               425088       0.0%    100.0%      0.0%
 flops     5 x     5 x     3               712800       0.0%    100.0%      0.0%
 flops    13 x     3 x     3               819468       0.0%    100.0%      0.0%
 flops     5 x     3 x    23               828000       0.0%    100.0%      0.0%
 flops     5 x     3 x    26               936000       0.0%    100.0%      0.0%
 flops     3 x     3 x    31              1008864       0.0%    100.0%      0.0%
 flops    18 x     3 x    23              1192320       0.0%    100.0%      0.0%
 flops    18 x     3 x    26              1347840       0.0%    100.0%      0.0%
 flops     5 x     3 x    31              2232000       0.0%    100.0%      0.0%
 flops    13 x     3 x    23              2583360       0.0%    100.0%      0.0%
 flops     5 x     3 x     5              2611200       0.0%    100.0%      0.0%
 flops     5 x    32 x     3              2698560       0.0%    100.0%      0.0%
 flops     5 x     3 x    32              2698560       0.0%    100.0%      0.0%
 flops    13 x     5 x     3              2882880       0.0%    100.0%      0.0%
 flops     5 x    13 x     3              2882880       0.0%    100.0%      0.0%
 flops    13 x     3 x    26              2920320       0.0%    100.0%      0.0%
 flops    18 x     3 x    31              3214080       0.0%    100.0%      0.0%
 flops    18 x     3 x    32              3808512       0.0%    100.0%      0.0%
 flops    18 x    32 x     3              3808512       0.0%    100.0%      0.0%
 flops    32 x     3 x    23              3930240       0.0%    100.0%      0.0%
 flops     3 x    32 x    23              3992064       0.0%    100.0%      0.0%
 flops    32 x     3 x    26              4442880       0.0%    100.0%      0.0%
 flops     3 x    32 x    26              4512768       0.0%    100.0%      0.0%
 flops    32 x    32 x     3              4534272       0.0%    100.0%      0.0%
 flops     3 x    32 x    32              4534272       0.0%    100.0%      0.0%
 flops    32 x     3 x    32              4534272       0.0%    100.0%      0.0%
 flops    13 x     3 x    31              6963840       0.0%    100.0%      0.0%
 flops     5 x     5 x    32              7603200       0.0%    100.0%      0.0%
 flops    13 x    32 x     3              8496384       0.0%    100.0%      0.0%
 flops    13 x     3 x    32              8496384       0.0%    100.0%      0.0%
 flops     5 x    32 x    23              8832000       0.0%    100.0%      0.0%
 flops     5 x    32 x    26              9984000       0.0%    100.0%      0.0%
 flops    32 x     3 x    31             10594560       0.0%    100.0%      0.0%
 flops     3 x    32 x    31             10761216       0.0%    100.0%      0.0%
 flops    13 x     3 x     5             11880960       0.0%    100.0%      0.0%
 flops     5 x     3 x    13             11880960       0.0%    100.0%      0.0%
 flops    18 x    32 x    23             12718080       0.0%    100.0%      0.0%
 flops    13 x    13 x     3             14054040       0.0%    100.0%      0.0%
 flops    18 x    32 x    26             14376960       0.0%    100.0%      0.0%
 flops     5 x    32 x    31             23808000       0.0%    100.0%      0.0%
 flops    13 x    32 x    23             27555840       0.0%    100.0%      0.0%
 flops     5 x    32 x     5             27852800       0.0%    100.0%      0.0%
 flops     5 x    32 x    32             29358080       0.0%    100.0%      0.0%
 flops    13 x     5 x    32             30750720       0.0%    100.0%      0.0%
 flops     5 x    13 x    32             30750720       0.0%    100.0%      0.0%
 flops    13 x    32 x    26             31150080       0.0%    100.0%      0.0%
 flops    18 x    32 x    31             34283520       0.0%    100.0%      0.0%
 flops    18 x    32 x    32             40624128       0.0%    100.0%      0.0%
 flops    32 x    32 x    23             42582016       0.0%    100.0%      0.0%
 flops    32 x    32 x    26             48136192       0.0%    100.0%      0.0%
 flops    32 x    32 x    32             48365568       0.0%    100.0%      0.0%
 flops    13 x     3 x    13             54058368       0.0%    100.0%      0.0%
 flops    13 x    32 x    31             74280960       0.0%    100.0%      0.0%
 flops    13 x    32 x    32             93237248       0.0%    100.0%      0.0%
 flops    32 x    32 x    31            114786304       0.0%    100.0%      0.0%
 flops    13 x    32 x     5            126730240       0.0%    100.0%      0.0%
 flops     5 x    32 x    13            126730240       0.0%    100.0%      0.0%
 flops    13 x    13 x    32            149909760       0.0%    100.0%      0.0%
 flops    13 x    32 x    13            576622592       0.0%    100.0%      0.0%
 flops inhomo. stacks                   400547840     100.0%      0.0%      0.0%
 flops total                         2.341158E+09      17.1%     82.9%      0.0%
 flops max/rank                    689.551832E+06      15.7%     84.3%      0.0%
 matmuls inhomo. stacks                     16496     100.0%      0.0%      0.0%
 matmuls total                             421432       3.9%     96.1%      0.0%
 number of processed stacks                292684       5.6%     94.4%      0.0%
 average stack size                                     1.0       1.5       0.0
 marketing flops                     2.427966E+09
 -------------------------------------------------------------------------------
 # multiplications                           2286
 max memory usage/rank               3.038458E+09
 # max total images/rank                        2
 # max 3D layers                                1
 # MPI messages exchanged                 1536192
 MPI messages size (bytes):
  total size                         2.146450E+09
  min size                           0.000000E+00
  max size                          14.592000E+03
  average size                       1.397254E+03
 MPI breakdown and total messages size (bytes):
             size <=      128             1206653                  1028664
       128 < size <=     8192              222215                786255344
      8192 < size <=    32768              107324               1359165696
     32768 < size <=   131072                   0                        0
    131072 < size <=  4194304                   0                        0
   4194304 < size <= 16777216                   0                        0
  16777216 < size                               0                        0
 -------------------------------------------------------------------------------

 *** WARNING in dbcsr/mm/dbcsr_mm.F:268 :: Using a non-square number of ***
 *** MPI ranks might lead to poor performance.                          ***
 *** Used ranks: 32                                                     ***
 *** Suggested: 36 64                                                   ***

 -------------------------------------------------------------------------------

 MEMORY| Estimated peak process memory [MiB]                                2903

 -------------------------------------------------------------------------------
 -                                                                             -
 -                         MESSAGE PASSING PERFORMANCE                         -
 -                                                                             -
 -------------------------------------------------------------------------------

 ROUTINE             CALLS      AVE VOLUME [Bytes]
 MP_Group               95
 MP_Bcast             4875                2550554.
 MP_Allreduce        22466                 372993.
 MP_Sync                41
 MP_Alltoall         10077               22084267.
 MP_ISendRecv        14756                 209952.
 MP_Wait            210954
 MP_comm_split          30
 MP_ISend           118350                 135942.
 MP_IRecv           117618                 136525.
 MP_Memory          131592
 -------------------------------------------------------------------------------


 -------------------------------------------------------------------------------
 -                                                                             -
 -                           R E F E R E N C E S                               -
 -                                                                             -
 -------------------------------------------------------------------------------
 
 CP2K version 6.1, the CP2K developers group (2018).
 CP2K is freely available from https://www.cp2k.org/ .

 Schuett, Ole; Messmer, Peter; Hutter, Juerg; VandeVondele, Joost. 
 Electronic Structure Calculations on Graphics Processing Units, John Wiley & Sons, Ltd, 173-190 (2016). 
 GPU-Accelerated Sparse Matrix-Matrix Multiplication for Linear Scaling Density Functional Theory.
 http://dx.doi.org/10.1002/9781118670712.ch8


 Borstnik, U; VandeVondele, J; Weber, V; Hutter, J. 
 PARALLEL COMPUTING, 40 (5-6), 47-58 (2014). 
 Sparse matrix multiplication: The distributed block-compressed sparse
 row library.
 http://dx.doi.org/10.1016/j.parco.2014.03.012


 Hutter, J; Iannuzzi, M; Schiffmann, F; VandeVondele, J. 
 WILEY INTERDISCIPLINARY REVIEWS-COMPUTATIONAL MOLECULAR SCIENCE, 4 (1), 15-25 (2014). 
 CP2K: atomistic simulations of condensed matter systems.
 http://dx.doi.org/10.1002/wcms.1159


 Laino, T; Mohamed, F; Laio, A; Parrinello, M. 
 JOURNAL OF CHEMICAL THEORY AND COMPUTATION, 1 (6), 1176-1184 (2005). 
 An efficient real space multigrid QM/MM electrostatic coupling.
 http://dx.doi.org/10.1021/ct050123f


 Krack, M. 
 THEORETICAL CHEMISTRY ACCOUNTS, 114 (1-3), 145-152 (2005). 
 Pseudopotentials for H to Kr optimized for gradient-corrected
 exchange-correlation functionals.
 http://dx.doi.org/10.1007/s00214-005-0655-y


 VandeVondele, J; Krack, M; Mohamed, F; Parrinello, M; Chassaing, T;
 Hutter, J. COMPUTER PHYSICS COMMUNICATIONS, 167 (2), 103-128 (2005). 
 QUICKSTEP: Fast and accurate density functional calculations using a
 mixed Gaussian and plane waves approach.
 http://dx.doi.org/10.1016/j.cpc.2004.12.014


 Frigo, M; Johnson, SG. 
 PROCEEDINGS OF THE IEEE, 93 (2), 216-231 (2005). 
 The design and implementation of FFTW3.
 http://dx.doi.org/10.1109/JPROC.2004.840301


 Kolafa, J. 
 JOURNAL OF COMPUTATIONAL CHEMISTRY, 25 (3), 335-342 (2004). 
 Time-reversible always stable predictor-corrector method for molecular dynamics of polarizable molecules.
 http://dx.doi.org/10.1002/jcc.10385


 VandeVondele, J; Hutter, J. 
 JOURNAL OF CHEMICAL PHYSICS, 118 (10), 4365-4369 (2003). 
 An efficient orbital transformation method for electronic structure
 calculations.
 http://dx.doi.org/10.1063/1.1543154


 Hartwigsen, C; Goedecker, S; Hutter, J. 
 PHYSICAL REVIEW B, 58 (7), 3641-3662 (1998). 
 Relativistic separable dual-space Gaussian pseudopotentials from H to Rn.
 http://dx.doi.org/10.1103/PhysRevB.58.3641


 Lippert, G; Hutter, J; Parrinello, M. 
 MOLECULAR PHYSICS, 92 (3), 477-487 (1997). 
 A hybrid Gaussian and plane wave density functional scheme.
 http://dx.doi.org/10.1080/002689797170220


 Goedecker, S; Teter, M; Hutter, J. 
 PHYSICAL REVIEW B, 54 (3), 1703-1710 (1996). 
 Separable dual-space Gaussian pseudopotentials.
 http://dx.doi.org/10.1103/PhysRevB.54.1703


 ESSMANN, U; PERERA, L; BERKOWITZ, ML; DARDEN, T; LEE, H; PEDERSEN, LG. 
 JOURNAL OF CHEMICAL PHYSICS, 103 (19), 8577-8593 (1995). 
 A SMOOTH PARTICLE MESH EWALD METHOD.
 http://dx.doi.org/10.1063/1.470117


 BECKE, AD. PHYSICAL REVIEW A, 38 (6), 3098-3100 (1988). 
 DENSITY-FUNCTIONAL EXCHANGE-ENERGY APPROXIMATION WITH CORRECT
 ASYMPTOTIC-BEHAVIOR.
 http://dx.doi.org/10.1103/PhysRevA.38.3098


 LEE, CT; YANG, WT; PARR, RG. 
 PHYSICAL REVIEW B, 37 (2), 785-789 (1988). 
 DEVELOPMENT OF THE COLLE-SALVETTI CORRELATION-ENERGY FORMULA INTO A
 FUNCTIONAL OF THE ELECTRON-DENSITY.
 http://dx.doi.org/10.1103/PhysRevB.37.785


 NOSE, S. JOURNAL OF CHEMICAL PHYSICS, 81 (1), 511-519 (1984). 
 A UNIFIED FORMULATION OF THE CONSTANT TEMPERATURE MOLECULAR-DYNAMICS
 METHODS.
 http://dx.doi.org/10.1063/1.447334


 NOSE, S. MOLECULAR PHYSICS, 52 (2), 255-268 (1984). 
 A MOLECULAR-DYNAMICS METHOD FOR SIMULATIONS IN THE CANONICAL ENSEMBLE.
 http://dx.doi.org/10.1080/00268978400101201


 -------------------------------------------------------------------------------
 -                                                                             -
 -                                T I M I N G                                  -
 -                                                                             -
 -------------------------------------------------------------------------------
 SUBROUTINE                       CALLS  ASD         SELF TIME        TOTAL TIME
                                MAXIMUM       AVERAGE  MAXIMUM  AVERAGE  MAXIMUM
 CP2K                                 1  1.0    0.259    0.298  432.809  432.819
 qs_mol_dyn_low                       1  2.0    0.003    0.004  423.891  424.218
 velocity_verlet                      5  3.0    0.003    0.004  301.725  301.736
 qs_forces                            6  3.8    0.001    0.001  244.733  244.739
 qs_energies                          6  4.8    0.000    0.000  235.636  235.642
 scf_env_do_scf                       6  5.8    0.000    0.001  230.578  230.583
 scf_env_do_scf_inner_loop          113  6.6    0.003    0.008  219.477  219.486
 rebuild_ks_matrix                  119  8.5    0.000    0.000  168.506  168.532
 qs_ks_build_kohn_sham_matrix       119  9.5    0.016    0.020  168.506  168.531
 qs_ks_update_qs_env                120  7.6    0.001    0.001  159.447  159.472
 pw_transfer                       2327 12.0    0.171    0.262  151.946  152.794
 fft_wrap_pw1pw2                   2059 13.1    0.026    0.038  150.611  151.454
 fft_wrap_pw1pw2_150               1321 14.3   12.814   14.400  145.324  146.187
 fft3d_ps                          2059 15.1   45.683   47.568  120.158  121.679
 qs_vxc_create                      119 10.5    0.002    0.002  107.105  107.123
 xc_vxc_pw_create                   119 11.5    1.317    1.555  107.103  107.122
 qmmm_forces                          6  3.8    0.070    0.090   95.046   95.048
 qmmm_forces_with_gaussian            6  4.8    0.087    0.106   92.179   93.635
 qmmm_el_coupling                     6  3.8    0.000    0.000   79.010   80.161
 qmmm_elec_with_gaussian              6  4.8    0.059    0.063   78.990   80.142
 qs_rho_update_rho                  119  7.7    0.001    0.001   60.030   60.056
 calculate_rho_elec                 119  8.7   11.717   12.214   60.030   60.055
 mp_alltoall_z22v                  2059 17.1   57.305   59.486   57.305   59.486
 pw_restrict_s3                      18  5.8   35.151   36.774   51.720   53.209
 xc_rho_set_and_dset_create         119 12.5    1.118    1.258   47.736   49.563
 density_rs2pw                      119  9.7    0.007    0.009   46.779   47.056
 qmmm_elec_with_gaussian:spline       6  5.8    0.000    0.000   44.014   45.162
 pw_prolongate_s3                    18  6.8   29.360   30.542   44.014   45.162
 x_to_yz                           1095 16.6   11.239   11.698   41.314   42.019
 rs_pw_transfer                     988 11.9    0.014    0.018   36.205   36.480
 sum_up_and_integrate               119 10.5    0.413    0.442   34.901   34.942
 integrate_v_rspace                 119 11.5    0.110    0.245   34.489   34.540
 yz_to_x                            964 15.6    5.869    6.186   33.099   34.289
 potential_pw2rs                    119 12.5    0.046    0.050   33.627   33.701
 mp_sum_dm3                          30  5.8   31.756   31.966   31.756   31.966
 qmmm_elec_with_gaussian_low          6  5.8    0.000    0.000   22.851   23.013
 qmmm_elec_gaussian_low_R             6  6.8    0.000    0.000   21.728   21.875
 qmmm_elec_with_gaussian_LR           6  7.8   21.728   21.875   21.728   21.875
 qmmm_force_with_gaussian_low         6  5.8    0.000    0.000   19.358   19.515
 mp_waitany                       11264 13.7   16.158   19.203   16.158   19.203
 qmmm_forces_gaussian_low_R           6  6.8    0.000    0.000   18.204   18.346
 qmmm_forces_with_gaussian_LR         6  7.8   18.204   18.346   18.204   18.346
 qs_scf_new_mos                     113  7.6    0.001    0.001   13.075   13.126
 qs_scf_loop_do_ot                  113  8.6    0.001    0.001   13.075   13.126
 ot_scf_mini                        113  9.6    0.003    0.003   12.438   12.531
 rs_pw_transfer_RS2PW_150           125 11.6    3.502    3.782   10.798   11.342
 rs_pw_transfer_PW2RS_150           125 14.3    3.237    3.558   10.808   11.318
 init_scf_loop                        7  6.7    0.000    0.000   11.040   11.045
 pw_axpy                           2152  9.1   10.538   10.865   10.538   10.865
 pw_scatter_p                      1095 15.6   10.010   10.381   10.010   10.381
 dbcsr_multiply_generic            2286 12.6    0.098    0.106   10.030   10.172
 qs_ks_update_qs_env_forces           6  4.8    0.000    0.000    9.072    9.074
 pw_zero                           2135  7.4    8.842    9.012    8.842    9.012
 pw_poisson_solve                   125 10.3    6.962    7.321    8.669    8.670
 -------------------------------------------------------------------------------

 The number of warnings for this run is : 1
 
 -------------------------------------------------------------------------------
  **** **** ******  **  PROGRAM ENDED AT                 2019-03-06 11:30:01.467
 ***** ** ***  *** **   PROGRAM RAN ON                                  nid00261
 **    ****   ******    PROGRAM RAN BY                                  fionabio
 ***** **    ** ** **   PROGRAM PROCESS ID                                 38491
  **** **  *******  **  PROGRAM STOPPED IN /fs3/d118/d118/fionabio/BioExcel2/cp2
                                           k_benchmarks/QMMM/MM/8_nodes/test-1
Experiment data file written:
/fs3/d118/d118/fionabio/BioExcel2/cp2k_benchmarks/QMMM/MM/8_nodes/test-1/cp2k.psmp+samp+38491-261s.xf
Application 33823456 resources: utime ~31959s, stime ~3537s, Rss ~3046488, inblocks ~56242827, outblocks ~4176887
