#     Step Nr.          Time[fs]        Kin.[a.u.]          Temp[K]            Pot.[a.u.]        Cons Qty[a.u.]        UsedTime[s]
         0            0.000000        40.175949793       299.249817787      -484.105023655      -443.928602006         0.000000000
         1            1.000000        40.157374363       299.111459041      -484.052369545      -443.891748112       173.900407858
         2            2.000000        40.163796009       299.159290551      -484.064784175      -443.894935664        53.684387944
         3            3.000000        40.211475753       299.514432242      -484.126299473      -443.905931543        54.478661927
         4            4.000000        40.239271186       299.721466006      -484.141163450      -443.890117335        53.495513509
         5            5.000000        40.412205605       301.009564820      -484.345276349      -443.918355591        55.644752657
