#     Step Nr.          Time[fs]        Kin.[a.u.]          Temp[K]            Pot.[a.u.]        Cons Qty[a.u.]        UsedTime[s]
         0            0.000000       422.425160122       298.806277594     -1576.543507514     -1154.117875537         0.000000000
         1            1.000000       422.191988418       298.641341470     -1576.246637122     -1154.045129756       909.461276836
         2            2.000000       422.631625758       298.952322939     -1576.736362574     -1154.085969803       354.917208551
         3            3.000000       423.233166677       299.377828377     -1577.436929194     -1154.175461668       349.063238326
         4            4.000000       423.043065593       299.243358647     -1577.193541469     -1154.112265396       349.400564510
         5            5.000000       422.594093644       298.925774257     -1576.733582673     -1154.091030489       355.902719761
