 *******************************************************************************
 *                            RESTART INFORMATION                              *
 *******************************************************************************
 *                                                                             *
 *    RESTART FILE NAME: NPT-1.restart                                         *
 *                                                                             *
 * RESTARTED QUANTITIES:                                                       *
 *                       CELL                                                  *
 *                       COORDINATES                                           *
 *                       RANDOM NUMBER GENERATOR                               *
 *                       VELOCITIES                                            *
 *                       MD AVERAGES                                           *
 *                       REAL TIME PROPAGATION                                 *
 *                       PINT BEAD POSITIONS                                   *
 *                       PINT BEAD VELOCITIES                                  *
 *                       PINT NOSE THERMOSTAT                                  *
 *                       PINT GLE THERMOSTAT                                   *
 *                       HELIUM BEAD POSITIONS                                 *
 *                       HELIUM PERMUTATION STATE                              *
 *                       HELIUM FORCES ON SOLUTE                               *
 *                       HELIUM RNG STATE                                      *
 *******************************************************************************

 DBCSR| Multiplication driver                                               XSMM
 DBCSR| Multrec recursion limit                                              512
 DBCSR| Multiplication stack size                                           1000
 DBCSR| Maximum elements for images                                    UNLIMITED
 DBCSR| Multiplicative factor virtual images                                   1
 DBCSR| Multiplication size stacks                                             3
 DBCSR| Number of 3D layers                                               SINGLE
 DBCSR| Use MPI memory allocation                                              T
 DBCSR| Use RMA algorithm                                                      F
 DBCSR| Use Communication thread                                               T
 DBCSR| Communication thread load                                             87


  **** **** ******  **  PROGRAM STARTED AT               2019-02-28 09:58:22.746
 ***** ** ***  *** **   PROGRAM STARTED ON                              nid04112
 **    ****   ******    PROGRAM STARTED BY                              fionabio
 ***** **    ** ** **   PROGRAM PROCESS ID                                 34253
  **** **  *******  **  PROGRAM STARTED IN /fs3/d118/d118/fionabio/BioExcel2/cp2
                                           k_benchmarks/QMMM/QM_test/LSD_test/te
                                           st-2

 CP2K| version string:                                          CP2K version 6.1
 CP2K| source code revision number:                                    svn:18464
 CP2K| cp2kflags: omp libint fftw3 libxc elpa=201605 elpa_qr parallel mpi3 scala
 CP2K|            pack xsmm libgrid has_no_shared_glibc max_contr=4 statm_resident plumed2
 CP2K| is freely available from                            https://www.cp2k.org/
 CP2K| Program compiled at                          Fri Feb 15 14:17:25 GMT 2019
 CP2K| Program compiled on                                            eslogin007
 CP2K| Program compiled for                                               ARCHER
 CP2K| Data directory path                     /work/y07/y07/cp2k/6.1.18464/data
 CP2K| Input file name                                                qmmm-2.inp

 GLOBAL| Force Environment number                                              1
 GLOBAL| Basis set file name                                           BASIS_SET
 GLOBAL| Potential file name                                           POTENTIAL
 GLOBAL| MM Potential file name                                     MM_POTENTIAL
 GLOBAL| Coordinate file name                                      __STD_INPUT__
 GLOBAL| Method name                                                        CP2K
 GLOBAL| Project name                                                     QMMM-2
 GLOBAL| Preferred FFT library                                             FFTW3
 GLOBAL| Preferred diagonalization lib.                                       SL
 GLOBAL| Run type                                                             MD
 GLOBAL| All-to-all communication in single precision                          F
 GLOBAL| FFTs using library dependent lengths                                  F
 GLOBAL| Global print level                                                  LOW
 GLOBAL| Total number of message passing processes                           192
 GLOBAL| Number of threads for this process                                    1
 GLOBAL| This output is from process                                           0
 GLOBAL| CPU model name :  Intel(R) Xeon(R) CPU E5-2697 v2 @ 2.70GHz

 MEMORY| system memory details [Kb]
 MEMORY|                        rank 0           min           max       average
 MEMORY| MemTotal             66072152      66072152      66072152      66072152
 MEMORY| MemFree              61201508      61201508      61210800      61207293
 MEMORY| Buffers                     0             0             0             0
 MEMORY| Cached                 276404        272020        276404        272582
 MEMORY| Slab                   268240        265668        268240        266640
 MEMORY| SReclaimable             8388          8296          8548          8443
 MEMORY| MemLikelyFree        61486300      61486300      61491376      61488318



                      ************* ******** ***********   
                     ************* **********************  
                     ****     **** ****      ***********   
                     ******** ****  *******     ****       
                     *******  ****   *******   ****        
                     ****     ****       ****  ****        
                     ****     **** **********  ****        
                      ****     **** ********    ****       
                     FRONTIERS IN SIMULATION TECHNOLOGY    
                                                           
                        C.J. Mundy, S. Balasubramanian,    
                     Ken Bagchi, J. Hutter, Ari Seitsonen  
                      IFW Kuo, T. Laino, J. VandeVondele   
                                 Version 1.0               

                                                           


 EWALD| Summation is done by:                                               SPME
 EWALD| Alpha parameter [       ANGSTROM^-1]                              0.4000
 EWALD| Real Space Cutoff [          ANGSTROM]                            8.4348
 EWALD| G-space max. Miller index                         80        80        80
 EWALD| Spline interpolation order                                             6

 FORCEFIELD| WARNING: A non Critical ForceField parameter is missing! CP2K GOES!
 FORCEFIELD| Non critical parameters are:Urey-Bradley,Torsions,Impropers, Opbends and 1-4
 FORCEFIELD| All missing parameters will not contribute to the potential energy!
 FORCEFIELD| Activate the print key FF_INFO to have a list of missing parameters

 CHARGE_INFO| Total Charge of the Classical System:                     0.000000

 SPLINE_INFO| Generating 61425 splines for NONBONDED14 interactions 
              Due to 350 different atomic kinds
  ...6142  ...12284  ...18426  ...24568  ...30710  ...36852  ...42994  ...49136  ...55278  ...61420
 SPLINE_INFO| Number of unique splines computed:            137
 SPLINE_INFO| Done

 SPLINE_INFO| Generating 61425 splines for NONBONDED interactions 
              Due to 350 different atomic kinds
  ...6142  ...12284  ...18426  ...24568  ...30710  ...36852  ...42994  ...49136  ...55278  ...61420
 SPLINE_INFO| Number of unique splines computed:            137
 SPLINE_INFO| Done

 *******************************************************************************
 *******************************************************************************
 **                                                                           **
 **     #####                         ##              ##                      **
 **    ##   ##            ##          ##              ##                      **
 **   ##     ##                       ##            ######                    **
 **   ##     ##  ##   ##  ##   #####  ##  ##   ####   ##    #####    #####    **
 **   ##     ##  ##   ##  ##  ##      ## ##   ##      ##   ##   ##  ##   ##   **
 **   ##  ## ##  ##   ##  ##  ##      ####     ###    ##   ######   ######    **
 **    ##  ###   ##   ##  ##  ##      ## ##      ##   ##   ##       ##        **
 **     #######   #####   ##   #####  ##  ##  ####    ##    #####   ##        **
 **           ##                                                    ##        **
 **                                                                           **
 **                                                ... make the atoms dance   **
 **                                                                           **
 **            Copyright (C) by CP2K developers group (2000 - 2018)           **
 **                                                                           **
 *******************************************************************************


 TOTAL NUMBERS AND MAXIMUM NUMBERS

  Total number of            - Atomic kinds:                                   5
                             - Atoms:                                         35
                             - Shell sets:                                    70
                             - Shells:                                       143
                             - Primitive Cartesian functions:                175
                             - Cartesian basis functions:                    346
                             - Spherical basis functions:                    327

  Maximum angular momentum of- Orbital basis functions:                        2
                             - Local part of the GTH pseudopotential:          2
                             - Non-local part of the GTH pseudopotential:      0


 SCF PARAMETERS         Density guess:                                    ATOMIC
                        --------------------------------------------------------
                        max_scf:                                              30
                        max_scf_history:                                       0
                        max_diis:                                              4
                        --------------------------------------------------------
                        eps_scf:                                        1.00E-06
                        eps_scf_history:                                0.00E+00
                        eps_diis:                                       1.00E-01
                        eps_eigval:                                     1.00E-05
                        --------------------------------------------------------
                        level_shift [a.u.]:                                 0.00
                        --------------------------------------------------------
                        Outer loop SCF in use 
                        No variables optimised in outer loop
                        eps_scf                                         1.00E-06
                        max_scf                                               10
                        No outer loop optimization
                        step_size                                       5.00E-01

 *******************************************************************************
 *******************************************************************************
 **                                                                           **
 **             #######  ##     ## ##     ## ##     ##                        **
 **            ##     ## ###   ### ###   ### ###   ###                        **
 **            ##     ## #### #### #### #### #### ####                        **
 **            ##     ## ## ### ## ## ### ## ## ### ##                        **
 **            ##  ## ## ##     ## ##     ## ##     ##                        **
 **            ##    ##  ##     ## ##     ## ##     ##  T.Laino and F.Mohamed **
 **             ##### ## ##     ## ##     ## ##     ##  2005 - 2015           **
 **                                                                           **
 **                                                     Calculation Started.. **
 *******************************************************************************
 *******************************************************************************

 MD| Molecular Dynamics Protocol 
 MD| Ensemble Type                                                           NVT
 MD| Number of Time Steps                                                      5
 MD| Time Step [fs]                                                         1.00
 MD| Temperature [K]                                                      298.00
 MD| Temperature tolerance [K]                                              0.00
 MD| Print MD information every                                        1 step(s)
 MD| File type     Print frequency[steps]                             File names
 MD| Coordinates          100                                   QMMM-2-pos-1.xyz
 MD| Velocities             1                                   QMMM-2-vel-1.xyz
 MD| Energies               1                                      QMMM-2-1.ener
 MD| Dump                1000                                   QMMM-2-1.restart

 ROT| Rotational Analysis Info 
 ROT| Principal axes and moments of inertia in atomic units:
 ROT|                                1                 2                 3
 ROT| EIGENVALUES            0.684222771E+12   0.824984710E+12   0.857051527E+12
 ROT|      X                     0.994031516       0.079445441       0.074764740
 ROT|      Y                     0.053274698      -0.951557830       0.302819259
 ROT|      Z                    -0.095200583       0.297028818       0.950110904
 ROT| Numer of Rotovibrational vectors:     6

 Calculation of degrees of freedom
                                                      Number of atoms:     28264
                                 Number of Intramolecular constraints:         0
                                 Number of Intermolecular constraints:         0
                                  Invariants(translation + rotations):         3
                                                   Degrees of freedom:     84789


 Restraints Information
                                  Number of Intramolecular restraints:         0
                                  Number of Intermolecular restraints:         0

 THERMOSTAT| Thermostat Info for PARTICLES
 THERMOSTAT| Type of thermostat                               Nose-Hoover-Chains
 THERMOSTAT| Nose-Hoover-Chain length                                          3
 THERMOSTAT| Nose-Hoover-Chain time constant [  fs]                       100.00
 THERMOSTAT| Order of Yoshida integrator                                       3
 THERMOSTAT| Number of multiple time steps                                     2
 THERMOSTAT| Initial Potential Energy                                   0.000000
 THERMOSTAT| Initial Kinetic Energy                                     0.000472
 THERMOSTAT| End of Thermostat Info for PARTICLES

 ************************** Velocities initialization **************************
 Initial Temperature                                                    299.25 K
 COM velocity:            0.000000000000      0.000000000000     -0.000000000000
 *******************************************************************************


  Translating the system in order to center the QM fragment in the QM box.

 Spin 1

 Number of electrons:                                                         50
 Number of occupied orbitals:                                                 50
 Number of molecular orbitals:                                                50

 Spin 2

 Number of electrons:                                                         50
 Number of occupied orbitals:                                                 50
 Number of molecular orbitals:                                                50

 Number of orbital functions:                                                327
 Number of independent orbital functions:                                    327

 Extrapolation method: initial_guess


 SCF WAVEFUNCTION OPTIMIZATION

  ----------------------------------- OT ---------------------------------------
  Minimizer      : DIIS                : direct inversion
                                         in the iterative subspace
                                         using   7 DIIS vectors
                                         safer DIIS on
  Preconditioner : FULL_SINGLE_INVERSE : inversion of 
                                         H + eS - 2*(Sc)(c^T*H*c+const)(Sc)^T
  Precond_solver : DEFAULT
  stepsize       :    0.08000000                  energy_gap     :    0.08000000
  eps_taylor     :   0.10000E-15                  max_taylor     :             4
  ----------------------------------- OT ---------------------------------------

  Step     Update method      Time    Convergence         Total energy    Change
  ------------------------------------------------------------------------------
     1 OT DIIS     0.80E-01    2.5     0.03621792      -147.2513976125 -1.47E+02
     2 OT DIIS     0.80E-01    3.0     0.02618805      -150.0409812229 -2.79E+00
     3 OT DIIS     0.80E-01    3.0     0.02177070      -152.1192933206 -2.08E+00
     4 OT DIIS     0.80E-01    3.1     0.01505545      -154.6498803515 -2.53E+00
     5 OT DIIS     0.80E-01    3.0     0.01074536      -155.7987051730 -1.15E+00
     6 OT DIIS     0.80E-01    3.0     0.00660794      -156.5334436746 -7.35E-01
     7 OT DIIS     0.80E-01    3.0     0.00441924      -156.8291224728 -2.96E-01
     8 OT DIIS     0.80E-01    3.0     0.00316336      -156.9852511580 -1.56E-01
     9 OT DIIS     0.80E-01    3.1     0.00237984      -157.0803380913 -9.51E-02
    10 OT DIIS     0.80E-01    3.0     0.00194102      -157.1333870584 -5.30E-02
    11 OT DIIS     0.80E-01    3.0     0.00181702      -157.1597334841 -2.63E-02
    12 OT DIIS     0.80E-01    3.0     0.00154900      -157.1853703203 -2.56E-02
    13 OT DIIS     0.80E-01    3.0     0.00138412      -157.2131679355 -2.78E-02
    14 OT DIIS     0.80E-01    3.0     0.00129938      -157.2272250268 -1.41E-02
    15 OT DIIS     0.80E-01    3.0     0.00121111      -157.2533129168 -2.61E-02
    16 OT DIIS     0.80E-01    3.0     0.00114367      -157.2623377998 -9.02E-03
    17 OT DIIS     0.80E-01    3.0     0.00109430      -157.2816901327 -1.94E-02
    18 OT DIIS     0.80E-01    3.2     0.00106657      -157.2854276492 -3.74E-03
    19 OT DIIS     0.80E-01    3.1     0.00093750      -157.3056553321 -2.02E-02
    20 OT DIIS     0.80E-01    3.0     0.00084662      -157.3178819198 -1.22E-02
    21 OT DIIS     0.80E-01    3.0     0.00067673      -157.3378757471 -2.00E-02
    22 OT DIIS     0.80E-01    3.0     0.00069139      -157.3403775487 -2.50E-03
    23 OT DIIS     0.80E-01    3.0     0.00054618      -157.3470935061 -6.72E-03
    24 OT DIIS     0.80E-01    3.0     0.00040952      -157.3553941842 -8.30E-03
    25 OT DIIS     0.80E-01    3.0     0.00035831      -157.3586024648 -3.21E-03
    26 OT DIIS     0.80E-01    3.1     0.00029649      -157.3605770252 -1.97E-03
    27 OT DIIS     0.80E-01    3.0     0.00025215      -157.3621894210 -1.61E-03
    28 OT DIIS     0.80E-01    3.0     0.00022720      -157.3631312496 -9.42E-04
    29 OT DIIS     0.80E-01    3.0     0.00017482      -157.3641994905 -1.07E-03
    30 OT DIIS     0.80E-01    3.0     0.00014884      -157.3648048370 -6.05E-04

  Leaving inner SCF loop after reaching    30 steps.


  Electronic density on regular grids:        -99.9999999933        0.0000000067
  Core density on regular grids:              100.9999999940       -0.0000000060
  Total charge density on r-space grids:        1.0000000007
  Total charge density g-space grids:           1.0000000007

  Overlap energy of the core charge distribution:               0.00000583139298
  Self energy of the core charge distribution:               -390.87581056066631
  Core Hamiltonian energy:                                    118.98206621309680
  Hartree energy:                                             158.70639840046169
  Exchange-correlation energy:                                -45.48710320632620
  QM/MM Electrostatic energy:                                   1.30963848505860

  Total energy:                                              -157.36480483698244

  outer SCF iter =    1 RMS gradient =   0.15E-03 energy =       -157.3648048370

  ----------------------------------- OT ---------------------------------------
  Minimizer      : DIIS                : direct inversion
                                         in the iterative subspace
                                         using   7 DIIS vectors
                                         safer DIIS on
  Preconditioner : FULL_SINGLE_INVERSE : inversion of 
                                         H + eS - 2*(Sc)(c^T*H*c+const)(Sc)^T
  Precond_solver : DEFAULT
  stepsize       :    0.08000000                  energy_gap     :    0.08000000
  eps_taylor     :   0.10000E-15                  max_taylor     :             4
  ----------------------------------- OT ---------------------------------------

  Step     Update method      Time    Convergence         Total energy    Change
  ------------------------------------------------------------------------------
     1 OT DIIS     0.80E-01    6.1     0.00046760      -157.3651827994 -3.78E-04
     2 OT DIIS     0.80E-01    3.0     0.00034127      -157.3656718234 -4.89E-04
     3 OT DIIS     0.80E-01    3.0     0.00016827      -157.3662224514 -5.51E-04
     4 OT DIIS     0.80E-01    3.0     0.00009554      -157.3663688879 -1.46E-04
     5 OT DIIS     0.80E-01    3.0     0.00005175      -157.3664142872 -4.54E-05
     6 OT DIIS     0.80E-01    3.0     0.00002858      -157.3664271595 -1.29E-05
     7 OT DIIS     0.80E-01    3.0     0.00001671      -157.3664309251 -3.77E-06
     8 OT DIIS     0.80E-01    3.0     0.00000912      -157.3664323296 -1.40E-06
     9 OT DIIS     0.80E-01    3.0     0.00000514      -157.3664327453 -4.16E-07
    10 OT DIIS     0.80E-01    3.0     0.00000328      -157.3664328731 -1.28E-07
    11 OT DIIS     0.80E-01    3.0     0.00000203      -157.3664329191 -4.60E-08
    12 OT DIIS     0.80E-01    3.0     0.00000118      -157.3664329395 -2.03E-08
    13 OT DIIS     0.80E-01    3.0     0.00000077      -157.3664329455 -6.04E-09

  *** SCF run converged in    13 steps ***


  Electronic density on regular grids:        -99.9999999933        0.0000000067
  Core density on regular grids:              100.9999999940       -0.0000000060
  Total charge density on r-space grids:        1.0000000007
  Total charge density g-space grids:           1.0000000007

  Overlap energy of the core charge distribution:               0.00000583139298
  Self energy of the core charge distribution:               -390.87581056066631
  Core Hamiltonian energy:                                    118.97287950987446
  Hartree energy:                                             158.71315900697084
  Exchange-correlation energy:                                -45.48589668248801
  QM/MM Electrostatic energy:                                   1.30922994941226

  Total energy:                                              -157.36643294550376

  outer SCF iter =    2 RMS gradient =   0.77E-06 energy =       -157.3664329455
  outer SCF loop converged in   2 iterations or   43 steps


  Integrated absolute spin density  :                               0.0000000000
  Ideal and single determinant S**2 :                    0.000000      -0.000000

 ENERGY| Total FORCE_EVAL ( QMMM ) energy (a.u.):           -284.342893963306892


 MD_ENERGIES| Initialization proceeding


 ******************************** GO CP2K GO! **********************************
 INITIAL POTENTIAL ENERGY[hartree]     =                     -0.284342893963E+03
 TOTAL INITIAL KINETIC ENERGY[hartree] =                      0.401759497934E+02
 QM INITIAL KINETIC ENERGY[hartree]    =                      0.613269227098E-01
 TOTAL INITIAL TEMPERATURE[K]          =                                 299.250
 QM INITIAL TEMPERATURE[K]             =                                 368.866
 INITIAL VOLUME[bohr^3]                =                      0.200731366996E+07
 INITIAL CELL LNTHS[bohr]   =      0.1406963E+03   0.1233340E+03   0.1156777E+03
 INITIAL CELL ANGLS[deg]    =      0.9000000E+02   0.9000000E+02   0.9000000E+02
 ******************************** GO CP2K GO! **********************************

  Translating the system in order to center the QM fragment in the QM box.

 Spin 1

 Number of electrons:                                                         50
 Number of occupied orbitals:                                                 50
 Number of molecular orbitals:                                                50

 Spin 2

 Number of electrons:                                                         50
 Number of occupied orbitals:                                                 50
 Number of molecular orbitals:                                                50

 Number of orbital functions:                                                327
 Number of independent orbital functions:                                    327

 Extrapolation method: ASPC


 SCF WAVEFUNCTION OPTIMIZATION

  ----------------------------------- OT ---------------------------------------
  Minimizer      : DIIS                : direct inversion
                                         in the iterative subspace
                                         using   7 DIIS vectors
                                         safer DIIS on
  Preconditioner : FULL_SINGLE_INVERSE : inversion of 
                                         H + eS - 2*(Sc)(c^T*H*c+const)(Sc)^T
  Precond_solver : DEFAULT
  stepsize       :    0.08000000                  energy_gap     :    0.08000000
  eps_taylor     :   0.10000E-15                  max_taylor     :             4
  ----------------------------------- OT ---------------------------------------

  Step     Update method      Time    Convergence         Total energy    Change
  ------------------------------------------------------------------------------
     1 OT DIIS     0.80E-01    2.4     0.00070386      -157.4066239807 -1.57E+02
     2 OT DIIS     0.80E-01    3.0     0.00047453      -157.4076772980 -1.05E-03
     3 OT DIIS     0.80E-01    3.0     0.00026547      -157.4084954356 -8.18E-04
     4 OT DIIS     0.80E-01    3.0     0.00012939      -157.4088238932 -3.28E-04
     5 OT DIIS     0.80E-01    3.0     0.00006983      -157.4088997180 -7.58E-05
     6 OT DIIS     0.80E-01    3.0     0.00003625      -157.4089226340 -2.29E-05
     7 OT DIIS     0.80E-01    3.0     0.00001931      -157.4089284981 -5.86E-06
     8 OT DIIS     0.80E-01    3.0     0.00000971      -157.4089302982 -1.80E-06
     9 OT DIIS     0.80E-01    3.0     0.00000529      -157.4089309315 -6.33E-07
    10 OT DIIS     0.80E-01    3.0     0.00000288      -157.4089310151 -8.36E-08
    11 OT DIIS     0.80E-01    3.0     0.00000174      -157.4089310496 -3.45E-08
    12 OT DIIS     0.80E-01    3.0     0.00000100      -157.4089310617 -1.20E-08
    13 OT DIIS     0.80E-01    3.0     0.00000055      -157.4089310662 -4.50E-09

  *** SCF run converged in    13 steps ***


  Electronic density on regular grids:        -99.9999999949        0.0000000051
  Core density on regular grids:              100.9999999939       -0.0000000061
  Total charge density on r-space grids:        0.9999999991
  Total charge density g-space grids:           0.9999999991

  Overlap energy of the core charge distribution:               0.00000453402534
  Self energy of the core charge distribution:               -390.87581056066631
  Core Hamiltonian energy:                                    118.88181823704049
  Hartree energy:                                             158.77182477104299
  Exchange-correlation energy:                                -45.46126853471488
  QM/MM Electrostatic energy:                                   1.27450048710978

  Total energy:                                              -157.40893106616261

  outer SCF iter =    1 RMS gradient =   0.55E-06 energy =       -157.4089310662
  outer SCF loop converged in   1 iterations or   13 steps


  Integrated absolute spin density  :                               0.0000000000
  Ideal and single determinant S**2 :                    0.000000      -0.000000

 ENERGY| Total FORCE_EVAL ( QMMM ) energy (a.u.):           -284.292187278291692


 *******************************************************************************
 ENSEMBLE TYPE                =                                              NVT
 STEP NUMBER                  =                                                1
 TIME [fs]                    =                                         1.000000
 CONSERVED QUANTITY [hartree] =                              -0.244136773924E+03

                                              INSTANTANEOUS             AVERAGES
 CPU TIME [s]                 =                      262.68               262.68
 ENERGY DRIFT PER ATOM [K]    =          0.331800126553E+00   0.000000000000E+00
 POTENTIAL ENERGY[hartree]    =         -0.284292187278E+03  -0.284292187278E+03
 TOTAL KINETIC ENERGY[hartree]=          0.401521665964E+02   0.401521665964E+02
 QM KINETIC ENERGY[hartree]   =          0.691895336125E-01   0.691895336125E-01
 TOTAL TEMPERATURE[K]         =                     299.073              299.073
 QM TEMPERATURE[K]            =                     416.158              416.158
 *******************************************************************************


  Translating the system in order to center the QM fragment in the QM box.

 Spin 1

 Number of electrons:                                                         50
 Number of occupied orbitals:                                                 50
 Number of molecular orbitals:                                                50

 Spin 2

 Number of electrons:                                                         50
 Number of occupied orbitals:                                                 50
 Number of molecular orbitals:                                                50

 Number of orbital functions:                                                327
 Number of independent orbital functions:                                    327

 Extrapolation method: ASPC


 SCF WAVEFUNCTION OPTIMIZATION

  ----------------------------------- OT ---------------------------------------
  Minimizer      : DIIS                : direct inversion
                                         in the iterative subspace
                                         using   7 DIIS vectors
                                         safer DIIS on
  Preconditioner : FULL_SINGLE_INVERSE : inversion of 
                                         H + eS - 2*(Sc)(c^T*H*c+const)(Sc)^T
  Precond_solver : DEFAULT
  stepsize       :    0.08000000                  energy_gap     :    0.08000000
  eps_taylor     :   0.10000E-15                  max_taylor     :             4
  ----------------------------------- OT ---------------------------------------

  Step     Update method      Time    Convergence         Total energy    Change
  ------------------------------------------------------------------------------
     1 OT DIIS     0.80E-01    2.4     0.00036225      -157.2905656334 -1.57E+02
     2 OT DIIS     0.80E-01    3.0     0.00021261      -157.2908171671 -2.52E-04
     3 OT DIIS     0.80E-01    3.0     0.00013694      -157.2909388277 -1.22E-04
     4 OT DIIS     0.80E-01    3.0     0.00006682      -157.2910175003 -7.87E-05
     5 OT DIIS     0.80E-01    3.0     0.00003720      -157.2910365048 -1.90E-05
     6 OT DIIS     0.80E-01    3.0     0.00002004      -157.2910427048 -6.20E-06
     7 OT DIIS     0.80E-01    3.0     0.00001126      -157.2910445999 -1.90E-06
     8 OT DIIS     0.80E-01    3.0     0.00000634      -157.2910451936 -5.94E-07
     9 OT DIIS     0.80E-01    3.0     0.00000385      -157.2910453769 -1.83E-07
    10 OT DIIS     0.80E-01    3.0     0.00000214      -157.2910454500 -7.31E-08
    11 OT DIIS     0.80E-01    3.0     0.00000162      -157.2910455706 -1.21E-07
    12 OT DIIS     0.80E-01    3.0     0.00000118      -157.2910456103 -3.97E-08
    13 OT DIIS     0.80E-01    3.0     0.00000049      -157.2910456189 -8.64E-09

  *** SCF run converged in    13 steps ***


  Electronic density on regular grids:        -99.9999999986        0.0000000014
  Core density on regular grids:              100.9999999939       -0.0000000061
  Total charge density on r-space grids:        0.9999999953
  Total charge density g-space grids:           0.9999999953

  Overlap energy of the core charge distribution:               0.00000413070295
  Self energy of the core charge distribution:               -390.87581056066631
  Core Hamiltonian energy:                                    118.81053698565361
  Hartree energy:                                             158.82038722271119
  Exchange-correlation energy:                                -45.44400609317409
  QM/MM Electrostatic energy:                                   1.39784269582884

  Total energy:                                              -157.29104561894377

  outer SCF iter =    1 RMS gradient =   0.49E-06 energy =       -157.2910456189
  outer SCF loop converged in   1 iterations or   13 steps


  Integrated absolute spin density  :                               0.0000000000
  Ideal and single determinant S**2 :                    0.000000       0.000000

 ENERGY| Total FORCE_EVAL ( QMMM ) energy (a.u.):           -284.294611529884889


 *******************************************************************************
 ENSEMBLE TYPE                =                                              NVT
 STEP NUMBER                  =                                                2
 TIME [fs]                    =                                         2.000000
 CONSERVED QUANTITY [hartree] =                              -0.244136227022E+03

                                              INSTANTANEOUS             AVERAGES
 CPU TIME [s]                 =                       85.90               174.29
 ENERGY DRIFT PER ATOM [K]    =          0.337910291819E+00   0.168955145910E+00
 POTENTIAL ENERGY[hartree]    =         -0.284294611530E+03  -0.284293399404E+03
 TOTAL KINETIC ENERGY[hartree]=          0.401523341016E+02   0.401522503490E+02
 QM KINETIC ENERGY[hartree]   =          0.757295559939E-01   0.724595448032E-01
 TOTAL TEMPERATURE[K]         =                     299.074              299.073
 QM TEMPERATURE[K]            =                     455.495              435.826
 *******************************************************************************


  Translating the system in order to center the QM fragment in the QM box.

 Spin 1

 Number of electrons:                                                         50
 Number of occupied orbitals:                                                 50
 Number of molecular orbitals:                                                50

 Spin 2

 Number of electrons:                                                         50
 Number of occupied orbitals:                                                 50
 Number of molecular orbitals:                                                50

 Number of orbital functions:                                                327
 Number of independent orbital functions:                                    327

 Extrapolation method: ASPC


 SCF WAVEFUNCTION OPTIMIZATION

  ----------------------------------- OT ---------------------------------------
  Minimizer      : DIIS                : direct inversion
                                         in the iterative subspace
                                         using   7 DIIS vectors
                                         safer DIIS on
  Preconditioner : FULL_SINGLE_INVERSE : inversion of 
                                         H + eS - 2*(Sc)(c^T*H*c+const)(Sc)^T
  Precond_solver : DEFAULT
  stepsize       :    0.08000000                  energy_gap     :    0.08000000
  eps_taylor     :   0.10000E-15                  max_taylor     :             4
  ----------------------------------- OT ---------------------------------------

  Step     Update method      Time    Convergence         Total energy    Change
  ------------------------------------------------------------------------------
     1 OT DIIS     0.80E-01    2.3     0.00042209      -157.1846723305 -1.57E+02
     2 OT DIIS     0.80E-01    3.0     0.00025253      -157.1850318271 -3.59E-04
     3 OT DIIS     0.80E-01    3.0     0.00013509      -157.1852396202 -2.08E-04
     4 OT DIIS     0.80E-01    3.0     0.00006359      -157.1853226854 -8.31E-05
     5 OT DIIS     0.80E-01    3.0     0.00003353      -157.1853424717 -1.98E-05
     6 OT DIIS     0.80E-01    3.0     0.00001906      -157.1853481811 -5.71E-06
     7 OT DIIS     0.80E-01    3.0     0.00001036      -157.1853502597 -2.08E-06
     8 OT DIIS     0.80E-01    2.9     0.00000627      -157.1853508467 -5.87E-07
     9 OT DIIS     0.80E-01    3.0     0.00000371      -157.1853510824 -2.36E-07
    10 OT DIIS     0.80E-01    3.0     0.00000227      -157.1853511608 -7.84E-08
    11 OT DIIS     0.80E-01    3.0     0.00000127      -157.1853511928 -3.20E-08
    12 OT DIIS     0.80E-01    3.0     0.00000076      -157.1853512023 -9.42E-09

  *** SCF run converged in    12 steps ***


  Electronic density on regular grids:       -100.0000000021       -0.0000000021
  Core density on regular grids:              100.9999999939       -0.0000000061
  Total charge density on r-space grids:        0.9999999918
  Total charge density g-space grids:           0.9999999918

  Overlap energy of the core charge distribution:               0.00000442361645
  Self energy of the core charge distribution:               -390.87581056066631
  Core Hamiltonian energy:                                    118.76954805467975
  Hartree energy:                                             158.85278976792802
  Exchange-correlation energy:                                -45.43748022948765
  QM/MM Electrostatic energy:                                   1.50559734167374

  Total energy:                                              -157.18535120225602

  outer SCF iter =    1 RMS gradient =   0.76E-06 energy =       -157.1853512023
  outer SCF loop converged in   1 iterations or   12 steps


  Integrated absolute spin density  :                               0.0000000000
  Ideal and single determinant S**2 :                    0.000000      -0.000000

 ENERGY| Total FORCE_EVAL ( QMMM ) energy (a.u.):           -284.352743990807085


 *******************************************************************************
 ENSEMBLE TYPE                =                                              NVT
 STEP NUMBER                  =                                                3
 TIME [fs]                    =                                         3.000000
 CONSERVED QUANTITY [hartree] =                              -0.244149032543E+03

                                              INSTANTANEOUS             AVERAGES
 CPU TIME [s]                 =                       81.73               143.44
 ENERGY DRIFT PER ATOM [K]    =          0.194842823469E+00   0.177584371763E+00
 POTENTIAL ENERGY[hartree]    =         -0.284352743991E+03  -0.284313180933E+03
 TOTAL KINETIC ENERGY[hartree]=          0.401948258384E+02   0.401664421788E+02
 QM KINETIC ENERGY[hartree]   =          0.790482641562E-01   0.746557845875E-01
 TOTAL TEMPERATURE[K]         =                     299.390              299.179
 QM TEMPERATURE[K]            =                     475.456              449.036
 *******************************************************************************


  Translating the system in order to center the QM fragment in the QM box.

 Spin 1

 Number of electrons:                                                         50
 Number of occupied orbitals:                                                 50
 Number of molecular orbitals:                                                50

 Spin 2

 Number of electrons:                                                         50
 Number of occupied orbitals:                                                 50
 Number of molecular orbitals:                                                50

 Number of orbital functions:                                                327
 Number of independent orbital functions:                                    327

 Extrapolation method: ASPC


 SCF WAVEFUNCTION OPTIMIZATION

  ----------------------------------- OT ---------------------------------------
  Minimizer      : DIIS                : direct inversion
                                         in the iterative subspace
                                         using   7 DIIS vectors
                                         safer DIIS on
  Preconditioner : FULL_SINGLE_INVERSE : inversion of 
                                         H + eS - 2*(Sc)(c^T*H*c+const)(Sc)^T
  Precond_solver : DEFAULT
  stepsize       :    0.08000000                  energy_gap     :    0.08000000
  eps_taylor     :   0.10000E-15                  max_taylor     :             4
  ----------------------------------- OT ---------------------------------------

  Step     Update method      Time    Convergence         Total energy    Change
  ------------------------------------------------------------------------------
     1 OT DIIS     0.80E-01    2.3     0.00061928      -156.9086971385 -1.57E+02
     2 OT DIIS     0.80E-01    3.0     0.00035095      -156.9094468866 -7.50E-04
     3 OT DIIS     0.80E-01    3.0     0.00019167      -156.9098111298 -3.64E-04
     4 OT DIIS     0.80E-01    3.0     0.00010214      -156.9099519917 -1.41E-04
     5 OT DIIS     0.80E-01    3.0     0.00005697      -156.9099959302 -4.39E-05
     6 OT DIIS     0.80E-01    3.0     0.00003336      -156.9100082624 -1.23E-05
     7 OT DIIS     0.80E-01    3.0     0.00001961      -156.9100131685 -4.91E-06
     8 OT DIIS     0.80E-01    3.0     0.00001212      -156.9100148162 -1.65E-06
     9 OT DIIS     0.80E-01    3.0     0.00000761      -156.9100154124 -5.96E-07
    10 OT DIIS     0.80E-01    3.0     0.00000426      -156.9100156679 -2.55E-07
    11 OT DIIS     0.80E-01    3.0     0.00000251      -156.9100157489 -8.10E-08
    12 OT DIIS     0.80E-01    3.0     0.00000158      -156.9100158099 -6.11E-08
    13 OT DIIS     0.80E-01    3.0     0.00000104      -156.9100158341 -2.41E-08
    14 OT DIIS     0.80E-01    2.9     0.00000065      -156.9100158388 -4.69E-09

  *** SCF run converged in    14 steps ***


  Electronic density on regular grids:        -99.9999999989        0.0000000011
  Core density on regular grids:              100.9999999941       -0.0000000059
  Total charge density on r-space grids:        0.9999999952
  Total charge density g-space grids:           0.9999999952

  Overlap energy of the core charge distribution:               0.00000478179281
  Self energy of the core charge distribution:               -390.87581056066631
  Core Hamiltonian energy:                                    118.74346307075194
  Hartree energy:                                             158.87584998574647
  Exchange-correlation energy:                                -45.43594641151110
  QM/MM Electrostatic energy:                                   1.78242329513189

  Total energy:                                              -156.91001583875430

  outer SCF iter =    1 RMS gradient =   0.65E-06 energy =       -156.9100158388
  outer SCF loop converged in   1 iterations or   14 steps


  Integrated absolute spin density  :                               0.0000000000
  Ideal and single determinant S**2 :                    0.000000      -0.000000

 ENERGY| Total FORCE_EVAL ( QMMM ) energy (a.u.):           -284.349607497731199


 *******************************************************************************
 ENSEMBLE TYPE                =                                              NVT
 STEP NUMBER                  =                                                4
 TIME [fs]                    =                                         4.000000
 CONSERVED QUANTITY [hartree] =                              -0.244117640158E+03

                                              INSTANTANEOUS             AVERAGES
 CPU TIME [s]                 =                       87.86               129.54
 ENERGY DRIFT PER ATOM [K]    =          0.545568820997E+00   0.269580484071E+00
 POTENTIAL ENERGY[hartree]    =         -0.284349607498E+03  -0.284322287574E+03
 TOTAL KINETIC ENERGY[hartree]=          0.402202070160E+02   0.401798833881E+02
 QM KINETIC ENERGY[hartree]   =          0.821738313308E-01   0.765352962733E-01
 TOTAL TEMPERATURE[K]         =                     299.579              299.279
 QM TEMPERATURE[K]            =                     494.255              460.341
 *******************************************************************************


  Translating the system in order to center the QM fragment in the QM box.

 Spin 1

 Number of electrons:                                                         50
 Number of occupied orbitals:                                                 50
 Number of molecular orbitals:                                                50

 Spin 2

 Number of electrons:                                                         50
 Number of occupied orbitals:                                                 50
 Number of molecular orbitals:                                                50

 Number of orbital functions:                                                327
 Number of independent orbital functions:                                    327

 Extrapolation method: ASPC


 SCF WAVEFUNCTION OPTIMIZATION

  ----------------------------------- OT ---------------------------------------
  Minimizer      : DIIS                : direct inversion
                                         in the iterative subspace
                                         using   7 DIIS vectors
                                         safer DIIS on
  Preconditioner : FULL_SINGLE_INVERSE : inversion of 
                                         H + eS - 2*(Sc)(c^T*H*c+const)(Sc)^T
  Precond_solver : DEFAULT
  stepsize       :    0.08000000                  energy_gap     :    0.08000000
  eps_taylor     :   0.10000E-15                  max_taylor     :             4
  ----------------------------------- OT ---------------------------------------

  Step     Update method      Time    Convergence         Total energy    Change
  ------------------------------------------------------------------------------
     1 OT DIIS     0.80E-01    2.3     0.00077460      -156.6775588457 -1.57E+02
     2 OT DIIS     0.80E-01    3.0     0.00047028      -156.6787853784 -1.23E-03
     3 OT DIIS     0.80E-01    3.0     0.00023552      -156.6795366067 -7.51E-04
     4 OT DIIS     0.80E-01    2.9     0.00011966      -156.6797831933 -2.47E-04
     5 OT DIIS     0.80E-01    3.0     0.00006384      -156.6798548989 -7.17E-05
     6 OT DIIS     0.80E-01    3.0     0.00003617      -156.6798769947 -2.21E-05
     7 OT DIIS     0.80E-01    3.0     0.00002033      -156.6798849169 -7.92E-06
     8 OT DIIS     0.80E-01    3.0     0.00001177      -156.6798875333 -2.62E-06
     9 OT DIIS     0.80E-01    3.0     0.00000652      -156.6798884626 -9.29E-07
    10 OT DIIS     0.80E-01    3.0     0.00000365      -156.6798887405 -2.78E-07
    11 OT DIIS     0.80E-01    3.0     0.00000206      -156.6798888263 -8.59E-08
    12 OT DIIS     0.80E-01    3.0     0.00000110      -156.6798888514 -2.51E-08
    13 OT DIIS     0.80E-01    3.0     0.00000059      -156.6798888584 -6.94E-09

  *** SCF run converged in    13 steps ***


  Electronic density on regular grids:        -99.9999999932        0.0000000068
  Core density on regular grids:              100.9999999940       -0.0000000060
  Total charge density on r-space grids:        1.0000000009
  Total charge density g-space grids:           1.0000000009

  Overlap energy of the core charge distribution:               0.00000494829342
  Self energy of the core charge distribution:               -390.87581056066631
  Core Hamiltonian energy:                                    118.72008632723211
  Hartree energy:                                             158.89525506980249
  Exchange-correlation energy:                                -45.43639853515199
  QM/MM Electrostatic energy:                                   2.01697389213038

  Total energy:                                              -156.67988885835990

  outer SCF iter =    1 RMS gradient =   0.59E-06 energy =       -156.6798888584
  outer SCF loop converged in   1 iterations or   13 steps


  Integrated absolute spin density  :                               0.0000000000
  Ideal and single determinant S**2 :                    0.000000      -0.000000

 ENERGY| Total FORCE_EVAL ( QMMM ) energy (a.u.):           -284.557884350501581


 *******************************************************************************
 ENSEMBLE TYPE                =                                              NVT
 STEP NUMBER                  =                                                5
 TIME [fs]                    =                                         5.000000
 CONSERVED QUANTITY [hartree] =                              -0.244150597960E+03

                                              INSTANTANEOUS             AVERAGES
 CPU TIME [s]                 =                       84.35               120.51
 ENERGY DRIFT PER ATOM [K]    =          0.177353473998E+00   0.251135082057E+00
 POTENTIAL ENERGY[hartree]    =         -0.284557884351E+03  -0.284369406929E+03
 TOTAL KINETIC ENERGY[hartree]=          0.403925978180E+02   0.402224262741E+02
 QM KINETIC ENERGY[hartree]   =          0.868452621059E-01   0.785972894398E-01
 TOTAL TEMPERATURE[K]         =                     300.864              299.596
 QM TEMPERATURE[K]            =                     522.353              472.743
 *******************************************************************************


 -------------------------------------------------------------------------------
 -                                                                             -
 -                                DBCSR STATISTICS                             -
 -                                                                             -
 -------------------------------------------------------------------------------
 COUNTER                                    TOTAL       BLAS       SMM       ACC
 flops     5 x    18 x    32              1290240       0.0%    100.0%      0.0%
 flops     5 x    32 x    18              1290240       0.0%    100.0%      0.0%
 flops     5 x    18 x    18              1451520       0.0%    100.0%      0.0%
 flops    13 x    32 x    18              3983616       0.0%    100.0%      0.0%
 flops    13 x    18 x    32              3983616       0.0%    100.0%      0.0%
 flops    13 x    18 x    18              4481568       0.0%    100.0%      0.0%
 flops     5 x    32 x    32              4587520       0.0%    100.0%      0.0%
 flops    13 x    32 x    32             14163968       0.0%    100.0%      0.0%
 flops    41 x    18 x    15             15276600       0.0%    100.0%      0.0%
 flops    45 x    18 x    15             16767000       0.0%    100.0%      0.0%
 flops    46 x    18 x    15             17139600       0.0%    100.0%      0.0%
 flops    18 x    18 x    15             25194240       0.0%    100.0%      0.0%
 flops    41 x    32 x    15             27158400       0.0%    100.0%      0.0%
 flops    45 x    32 x    15             29808000       0.0%    100.0%      0.0%
 flops    46 x    32 x    15             30470400       0.0%    100.0%      0.0%
 flops     5 x     5 x    18             31089600       0.0%    100.0%      0.0%
 flops    18 x    18 x    32             31684608       0.0%    100.0%      0.0%
 flops    32 x    18 x    15             44064000       0.0%    100.0%      0.0%
 flops    18 x    32 x    15             44789760       0.0%    100.0%      0.0%
 flops    41 x    18 x    32             49688064       0.0%    100.0%      0.0%
 flops    41 x    18 x    18             52392096       0.0%    100.0%      0.0%
 flops    45 x    18 x    32             54535680       0.0%    100.0%      0.0%
 flops     5 x     5 x    32             55270400       0.0%    100.0%      0.0%
 flops    46 x    18 x    32             55747584       0.0%    100.0%      0.0%
 flops    18 x    32 x    32             56328192       0.0%    100.0%      0.0%
 flops    32 x    18 x    32             56328192       0.0%    100.0%      0.0%
 flops    45 x    18 x    18             57503520       0.0%    100.0%      0.0%
 flops    18 x    18 x    18             58133376       0.0%    100.0%      0.0%
 flops    46 x    18 x    18             58781376       0.0%    100.0%      0.0%
 flops    41 x    18 x    13             66198600       0.0%    100.0%      0.0%
 flops    39 x    18 x    15             72657000       0.0%    100.0%      0.0%
 flops    45 x    18 x    13             72657000       0.0%    100.0%      0.0%
 flops    46 x    18 x    13             74271600       0.0%    100.0%      0.0%
 flops    32 x    32 x    15             79626240       0.0%    100.0%      0.0%
 flops    41 x    32 x    32             88334336       0.0%    100.0%      0.0%
 flops    13 x     5 x    18             90342720       0.0%    100.0%      0.0%
 flops     5 x    13 x    18             90342720       0.0%    100.0%      0.0%
 flops    41 x    32 x    18             93141504       0.0%    100.0%      0.0%
 flops    45 x    32 x    32             96952320       0.0%    100.0%      0.0%
 flops    46 x    32 x    32             99106816       0.0%    100.0%      0.0%
 flops    32 x    32 x    32            100139008       0.0%    100.0%      0.0%
 flops    32 x    18 x    18            102187008       0.0%    100.0%      0.0%
 flops    45 x    32 x    18            102228480       0.0%    100.0%      0.0%
 flops    18 x    32 x    18            103348224       0.0%    100.0%      0.0%
 flops    46 x    32 x    18            104500224       0.0%    100.0%      0.0%
 flops    18 x    18 x    13            109175040       0.0%    100.0%      0.0%
 flops    41 x    32 x    13            117686400       0.0%    100.0%      0.0%
 flops     5 x    18 x     5            122112000       0.0%    100.0%      0.0%
 flops    39 x    32 x    15            129168000       0.0%    100.0%      0.0%
 flops    45 x    32 x    13            129168000       0.0%    100.0%      0.0%
 flops    46 x    32 x    13            132038400       0.0%    100.0%      0.0%
 flops    13 x     5 x    32            160609280       0.0%    100.0%      0.0%
 flops     5 x    13 x    32            160609280       0.0%    100.0%      0.0%
 flops    32 x    32 x    18            183730176       0.0%    100.0%      0.0%
 flops    32 x    18 x    13            190944000       0.0%    100.0%      0.0%
 flops    18 x    32 x    13            194088960       0.0%    100.0%      0.0%
 flops     5 x    32 x     5            217088000       0.0%    100.0%      0.0%
 flops    39 x    18 x    32            236321280       0.0%    100.0%      0.0%
 flops    39 x    18 x    18            249181920       0.0%    100.0%      0.0%
 flops    13 x    13 x    18            293613840       0.0%    100.0%      0.0%
 flops    39 x    18 x    13            314847000       0.0%    100.0%      0.0%
 flops    32 x    32 x    13            345047040       0.0%    100.0%      0.0%
 flops    13 x    18 x     5            377020800       0.0%    100.0%      0.0%
 flops     5 x    18 x    13            377020800       0.0%    100.0%      0.0%
 flops    39 x    32 x    32            420126720       0.0%    100.0%      0.0%
 flops    39 x    32 x    18            442990080       0.0%    100.0%      0.0%
 flops    13 x    13 x    32            521980160       0.0%    100.0%      0.0%
 flops    39 x    32 x    13            559728000       0.0%    100.0%      0.0%
 flops    13 x    32 x     5            670259200       0.0%    100.0%      0.0%
 flops     5 x    32 x    13            670259200       0.0%    100.0%      0.0%
 flops    13 x    18 x    13           1164051720       0.0%    100.0%      0.0%
 flops    13 x    32 x    13           2069425280       0.0%    100.0%      0.0%
 flops inhomo. stacks                   425695392     100.0%      0.0%      0.0%
 flops total                        13.323403E+09       3.2%     96.8%      0.0%
 flops max/rank                      1.547345E+09       5.5%     94.5%      0.0%
 matmuls inhomo. stacks                     14244     100.0%      0.0%      0.0%
 matmuls total                            1838296       0.8%     99.2%      0.0%
 number of processed stacks                639424       2.2%     97.8%      0.0%
 average stack size                                     1.0       2.9       0.0
 marketing flops                    14.426161E+09
 -------------------------------------------------------------------------------
 # multiplications                           4500
 max memory usage/rank               1.825976E+09
 # max total images/rank                        3
 # max 3D layers                                1
 # MPI messages exchanged                79488000
 MPI messages size (bytes):
  total size                        29.115070E+09
  min size                           0.000000E+00
  max size                          11.776000E+03
  average size                     366.282593E+00
 MPI breakdown and total messages size (bytes):
             size <=      128            72233892                        0
       128 < size <=     8192             7008652              26546330624
      8192 < size <=    32768              245456               2568451584
     32768 < size <=   131072                   0                        0
    131072 < size <=  4194304                   0                        0
   4194304 < size <= 16777216                   0                        0
  16777216 < size                               0                        0
 -------------------------------------------------------------------------------

 *** WARNING in dbcsr/mm/dbcsr_mm.F:268 :: Using a non-square number of ***
 *** MPI ranks might lead to poor performance.                          ***
 *** Used ranks: 192                                                    ***
 *** Suggested: 196 400                                                 ***

 -------------------------------------------------------------------------------

 MEMORY| Estimated peak process memory [MiB]                                1742

 -------------------------------------------------------------------------------
 -                                                                             -
 -                         MESSAGE PASSING PERFORMANCE                         -
 -                                                                             -
 -------------------------------------------------------------------------------

 ROUTINE             CALLS      AVE VOLUME [Bytes]
 MP_Group              190
 MP_Bcast             9563                1212864.
 MP_Allreduce        43316                 193444.
 MP_Sync                71
 MP_Alltoall         19554                3246508.
 MP_ISendRecv       174192                  58320.
 MP_Wait           1164390
 MP_comm_split          60
 MP_ISend           901642                  11055.
 MP_IRecv           898268                  11048.
 MP_Memory          336976
 -------------------------------------------------------------------------------


 -------------------------------------------------------------------------------
 -                                                                             -
 -                           R E F E R E N C E S                               -
 -                                                                             -
 -------------------------------------------------------------------------------
 
 CP2K version 6.1, the CP2K developers group (2018).
 CP2K is freely available from https://www.cp2k.org/ .

 Schuett, Ole; Messmer, Peter; Hutter, Juerg; VandeVondele, Joost. 
 Electronic Structure Calculations on Graphics Processing Units, John Wiley & Sons, Ltd, 173-190 (2016). 
 GPU-Accelerated Sparse Matrix-Matrix Multiplication for Linear Scaling Density Functional Theory.
 http://dx.doi.org/10.1002/9781118670712.ch8


 Borstnik, U; VandeVondele, J; Weber, V; Hutter, J. 
 PARALLEL COMPUTING, 40 (5-6), 47-58 (2014). 
 Sparse matrix multiplication: The distributed block-compressed sparse
 row library.
 http://dx.doi.org/10.1016/j.parco.2014.03.012


 Hutter, J; Iannuzzi, M; Schiffmann, F; VandeVondele, J. 
 WILEY INTERDISCIPLINARY REVIEWS-COMPUTATIONAL MOLECULAR SCIENCE, 4 (1), 15-25 (2014). 
 CP2K: atomistic simulations of condensed matter systems.
 http://dx.doi.org/10.1002/wcms.1159


 Laino, T; Mohamed, F; Laio, A; Parrinello, M. 
 JOURNAL OF CHEMICAL THEORY AND COMPUTATION, 1 (6), 1176-1184 (2005). 
 An efficient real space multigrid QM/MM electrostatic coupling.
 http://dx.doi.org/10.1021/ct050123f


 Krack, M. 
 THEORETICAL CHEMISTRY ACCOUNTS, 114 (1-3), 145-152 (2005). 
 Pseudopotentials for H to Kr optimized for gradient-corrected
 exchange-correlation functionals.
 http://dx.doi.org/10.1007/s00214-005-0655-y


 VandeVondele, J; Krack, M; Mohamed, F; Parrinello, M; Chassaing, T;
 Hutter, J. COMPUTER PHYSICS COMMUNICATIONS, 167 (2), 103-128 (2005). 
 QUICKSTEP: Fast and accurate density functional calculations using a
 mixed Gaussian and plane waves approach.
 http://dx.doi.org/10.1016/j.cpc.2004.12.014


 Frigo, M; Johnson, SG. 
 PROCEEDINGS OF THE IEEE, 93 (2), 216-231 (2005). 
 The design and implementation of FFTW3.
 http://dx.doi.org/10.1109/JPROC.2004.840301


 Kolafa, J. 
 JOURNAL OF COMPUTATIONAL CHEMISTRY, 25 (3), 335-342 (2004). 
 Time-reversible always stable predictor-corrector method for molecular dynamics of polarizable molecules.
 http://dx.doi.org/10.1002/jcc.10385


 VandeVondele, J; Hutter, J. 
 JOURNAL OF CHEMICAL PHYSICS, 118 (10), 4365-4369 (2003). 
 An efficient orbital transformation method for electronic structure
 calculations.
 http://dx.doi.org/10.1063/1.1543154


 Hartwigsen, C; Goedecker, S; Hutter, J. 
 PHYSICAL REVIEW B, 58 (7), 3641-3662 (1998). 
 Relativistic separable dual-space Gaussian pseudopotentials from H to Rn.
 http://dx.doi.org/10.1103/PhysRevB.58.3641


 Lippert, G; Hutter, J; Parrinello, M. 
 MOLECULAR PHYSICS, 92 (3), 477-487 (1997). 
 A hybrid Gaussian and plane wave density functional scheme.
 http://dx.doi.org/10.1080/002689797170220


 Goedecker, S; Teter, M; Hutter, J. 
 PHYSICAL REVIEW B, 54 (3), 1703-1710 (1996). 
 Separable dual-space Gaussian pseudopotentials.
 http://dx.doi.org/10.1103/PhysRevB.54.1703


 ESSMANN, U; PERERA, L; BERKOWITZ, ML; DARDEN, T; LEE, H; PEDERSEN, LG. 
 JOURNAL OF CHEMICAL PHYSICS, 103 (19), 8577-8593 (1995). 
 A SMOOTH PARTICLE MESH EWALD METHOD.
 http://dx.doi.org/10.1063/1.470117


 BECKE, AD. PHYSICAL REVIEW A, 38 (6), 3098-3100 (1988). 
 DENSITY-FUNCTIONAL EXCHANGE-ENERGY APPROXIMATION WITH CORRECT
 ASYMPTOTIC-BEHAVIOR.
 http://dx.doi.org/10.1103/PhysRevA.38.3098


 LEE, CT; YANG, WT; PARR, RG. 
 PHYSICAL REVIEW B, 37 (2), 785-789 (1988). 
 DEVELOPMENT OF THE COLLE-SALVETTI CORRELATION-ENERGY FORMULA INTO A
 FUNCTIONAL OF THE ELECTRON-DENSITY.
 http://dx.doi.org/10.1103/PhysRevB.37.785


 NOSE, S. JOURNAL OF CHEMICAL PHYSICS, 81 (1), 511-519 (1984). 
 A UNIFIED FORMULATION OF THE CONSTANT TEMPERATURE MOLECULAR-DYNAMICS
 METHODS.
 http://dx.doi.org/10.1063/1.447334


 NOSE, S. MOLECULAR PHYSICS, 52 (2), 255-268 (1984). 
 A MOLECULAR-DYNAMICS METHOD FOR SIMULATIONS IN THE CANONICAL ENSEMBLE.
 http://dx.doi.org/10.1080/00268978400101201


 -------------------------------------------------------------------------------
 -                                                                             -
 -                                T I M I N G                                  -
 -                                                                             -
 -------------------------------------------------------------------------------
 SUBROUTINE                       CALLS  ASD         SELF TIME        TOTAL TIME
                                MAXIMUM       AVERAGE  MAXIMUM  AVERAGE  MAXIMUM
 CP2K                                 1  1.0    0.971    1.073  614.291  614.307
 qs_mol_dyn_low                       1  2.0    0.004    0.006  602.740  603.503
 velocity_verlet                      5  3.0    0.009    0.010  425.204  425.220
 qs_forces                            6  3.8    0.001    0.001  343.549  343.559
 qs_energies                          6  4.8    0.000    0.001  329.542  329.552
 scf_env_do_scf                       6  5.8    0.000    0.001  323.821  323.829
 scf_env_do_scf_inner_loop          108  6.6    0.004    0.009  307.651  307.659
 rebuild_ks_matrix                  114  8.5    0.000    0.000  254.070  254.110
 qs_ks_build_kohn_sham_matrix       114  9.5    0.021    0.028  254.069  254.110
 qs_ks_update_qs_env                115  7.6    0.001    0.001  240.104  240.143
 pw_transfer                       4056 12.1    0.288    0.445  231.501  235.218
 fft_wrap_pw1pw2                   3798 13.2    0.047    0.065  230.091  233.846
 fft_wrap_pw1pw2_150               2406 14.4   15.272   16.058  223.665  227.522
 fft3d_ps                          3798 15.2   79.983   93.530  184.727  189.686
 qs_vxc_create                      114 10.5    0.003    0.004  177.868  177.905
 xc_vxc_pw_create                   114 11.5    3.301    3.962  177.865  177.901
 qmmm_forces                          6  3.8    0.026    0.030  136.989  136.993
 qmmm_forces_with_gaussian            6  4.8    0.069    0.093  134.163  135.935
 pw_restrict_s3                      18  5.8   93.195   96.114  119.311  121.144
 qmmm_el_coupling                     6  3.8    0.000    0.000  118.882  120.265
 qmmm_elec_with_gaussian              6  4.8    0.034    0.050  118.872  120.251
 qmmm_elec_with_gaussian:spline       6  5.8    0.000    0.000  101.791  103.177
 pw_prolongate_s3                    18  6.8   78.649   81.086  101.791  103.177
 mp_alltoall_z22v                  3798 17.2   84.455   90.828   84.455   90.828
 xc_rho_set_and_dset_create         114 12.5    2.748    3.660   75.510   80.835
 qs_rho_update_rho                  114  7.7    0.001    0.001   77.428   77.430
 calculate_rho_elec                 228  8.7    0.686    8.552   77.427   77.429
 density_rs2pw                      228  9.7    0.018    0.024   70.966   72.838
 sum_up_and_integrate               114 10.5    0.550    0.730   58.332   58.397
 integrate_v_rspace                 228 11.5    0.306    5.939   57.782   57.913
 yz_to_x                           1836 15.7    7.609    8.375   51.586   56.380
 x_to_yz                           1962 16.7   12.591   16.550   53.069   54.033
 rs_pw_transfer                    1860 12.0    0.027    0.040   52.263   52.753
 potential_pw2rs                    228 12.5    0.033    0.042   51.614   51.755
 pw_axpy                           3720 10.2   21.249   22.378   21.249   22.378
 pw_zero                           2244  7.6   19.863   21.351   19.863   21.351
 mp_waitany                       50688 13.9   15.474   19.945   15.474   19.945
 mp_sum_dm3                          30  5.8   19.539   19.619   19.539   19.619
 pw_scatter_p                      1962 15.7   17.241   18.193   17.241   18.193
 rs_pw_transfer_PW2RS_150           234 14.3    7.549    8.723   16.179   17.379
 rs_pw_transfer_RS2PW_150           234 11.6    8.828    9.983   14.857   16.153
 init_scf_loop                        7  6.7    0.000    0.000   16.152   16.152
 qs_ks_update_qs_env_forces           6  4.8    0.000    0.000   13.977   13.980
 mp_waitall_1                   1113984 15.5   10.261   13.425   10.261   13.425
 pw_gather_p                       1836 14.7   12.509   13.052   12.509   13.052
 -------------------------------------------------------------------------------

 The number of warnings for this run is : 1
 
 -------------------------------------------------------------------------------
  **** **** ******  **  PROGRAM ENDED AT                 2019-02-28 10:08:38.603
 ***** ** ***  *** **   PROGRAM RAN ON                                  nid04112
 **    ****   ******    PROGRAM RAN BY                                  fionabio
 ***** **    ** ** **   PROGRAM PROCESS ID                                 34253
  **** **  *******  **  PROGRAM STOPPED IN /fs3/d118/d118/fionabio/BioExcel2/cp2
                                           k_benchmarks/QMMM/QM_test/LSD_test/te
                                           st-2
Application 33711575 resources: utime ~110325s, stime ~7869s, Rss ~1862956, inblocks ~3300653, outblocks ~4622960
