#     Step Nr.          Time[fs]        Kin.[a.u.]          Temp[K]            Pot.[a.u.]        Cons Qty[a.u.]        UsedTime[s]
         0            0.000000        40.175949793       299.249817787      -382.302133734      -342.125712085         0.000000000
         1            1.000000        40.157870670       299.115155773      -382.237373177      -342.076255408       322.614424792
         2            2.000000        40.164475537       299.164352001      -382.252592189      -342.082063975        95.459099655
         3            3.000000        40.209247737       299.497836904      -382.304107208      -342.085967011        97.954392401
         4            4.000000        40.232775748       299.673084860      -382.313288277      -342.068737948        94.461167935
         5            5.000000        40.403488176       300.944633215      -382.522380978      -342.104180131        94.840162759
