#     Step Nr.          Time[fs]        Kin.[a.u.]          Temp[K]            Pot.[a.u.]        Cons Qty[a.u.]        UsedTime[s]
         0            0.000000        40.175949793       299.249817787      -284.342893965      -244.166472316         0.000000000
         1            1.000000        40.152166628       299.072669320      -284.292187290      -244.136773904       186.771022024
         2            2.000000        40.152333927       299.073915446      -284.294611443      -244.136227109        67.292160701
         3            3.000000        40.194825538       299.390413420      -284.352744138      -244.149032992        63.968796629
         4            4.000000        40.220206817       299.579465405      -284.349607747      -244.117640607        69.336600719
         5            5.000000        40.392597282       300.863512596      -284.557884330      -244.150598476        66.041283600
