#     Step Nr.          Time[fs]        Kin.[a.u.]          Temp[K]            Pot.[a.u.]        Cons Qty[a.u.]        UsedTime[s]
         0            0.000000        40.175949793       299.249817787      -238.947395130      -198.770973481         0.000000000
         1            1.000000        40.154318357       299.088696431      -238.897069875      -198.739504632       250.309194573
         2            2.000000        40.154775053       299.092098126      -238.904509899      -198.743683712        77.266186685
         3            3.000000        40.194517022       299.388115446      -238.959112922      -198.755708635        80.151919439
         4            4.000000        40.216043498       299.548455003      -238.959291198      -198.731485117        81.141888581
         5            5.000000        40.387279041       300.823899775      -239.165101091      -198.763131569        80.663278620
