#     Step Nr.          Time[fs]        Kin.[a.u.]          Temp[K]            Pot.[a.u.]        Cons Qty[a.u.]        UsedTime[s]
         0            0.000000        40.175949793       299.249817787      -284.342893963      -244.166472314         0.000000000
         1            1.000000        40.152166596       299.072669085      -284.292187278      -244.136773924       262.682808242
         2            2.000000        40.152334102       299.073916744      -284.294611530      -244.136227022        85.901494217
         3            3.000000        40.194825838       299.390415659      -284.352743991      -244.149032543        81.725182306
         4            4.000000        40.220207016       299.579466890      -284.349607498      -244.117640158        87.864023951
         5            5.000000        40.392597818       300.863516585      -284.557884351      -244.150597960        84.351598446
