#     Step Nr.          Time[fs]        Kin.[a.u.]          Temp[K]            Pot.[a.u.]        Cons Qty[a.u.]        UsedTime[s]
         0            0.000000        40.175949793       299.249817787      -484.105023648      -443.928601999         0.000000000
         1            1.000000        40.157378024       299.111486308      -484.052369471      -443.891744378       340.548453184
         2            2.000000        40.163802939       299.159342164      -484.064782724      -443.894927282        99.459320751
         3            3.000000        40.211482749       299.514484347      -484.126297282      -443.905922353        98.485580551
         4            4.000000        40.239277864       299.721515747      -484.141160585      -443.890107784        93.423784832
         5            5.000000        40.412211914       301.009611816      -484.345273395      -443.918346314        99.975913289
