#     Step Nr.          Time[fs]        Kin.[a.u.]          Temp[K]            Pot.[a.u.]        Cons Qty[a.u.]        UsedTime[s]
         0            0.000000        40.175949793       299.249817787      -382.302133752      -342.125712103         0.000000000
         1            1.000000        40.157870528       299.115154716      -382.237373154      -342.076255527       210.532484358
         2            2.000000        40.164474798       299.164346497      -382.252592131      -342.082064656        75.525012956
         3            3.000000        40.209246479       299.497827536      -382.304107111      -342.085968171        77.238382969
         4            4.000000        40.232774696       299.673077022      -382.313288224      -342.068738948        74.143264549
         5            5.000000        40.403486826       300.944623162      -382.522380452      -342.104180955        74.047156770
