 *******************************************************************************
 *                            RESTART INFORMATION                              *
 *******************************************************************************
 *                                                                             *
 *    RESTART FILE NAME: NPT-1.restart                                         *
 *                                                                             *
 * RESTARTED QUANTITIES:                                                       *
 *                       CELL                                                  *
 *                       COORDINATES                                           *
 *                       RANDOM NUMBER GENERATOR                               *
 *                       VELOCITIES                                            *
 *                       MD AVERAGES                                           *
 *                       REAL TIME PROPAGATION                                 *
 *                       PINT BEAD POSITIONS                                   *
 *                       PINT BEAD VELOCITIES                                  *
 *                       PINT NOSE THERMOSTAT                                  *
 *                       PINT GLE THERMOSTAT                                   *
 *                       HELIUM BEAD POSITIONS                                 *
 *                       HELIUM PERMUTATION STATE                              *
 *                       HELIUM FORCES ON SOLUTE                               *
 *                       HELIUM RNG STATE                                      *
 *******************************************************************************

 DBCSR| Multiplication driver                                               XSMM
 DBCSR| Multrec recursion limit                                              512
 DBCSR| Multiplication stack size                                           1000
 DBCSR| Maximum elements for images                                    UNLIMITED
 DBCSR| Multiplicative factor virtual images                                   1
 DBCSR| Multiplication size stacks                                             3
 DBCSR| Number of 3D layers                                               SINGLE
 DBCSR| Use MPI memory allocation                                              T
 DBCSR| Use RMA algorithm                                                      F
 DBCSR| Use Communication thread                                               T
 DBCSR| Communication thread load                                             87


  **** **** ******  **  PROGRAM STARTED AT               2019-02-28 10:35:37.121
 ***** ** ***  *** **   PROGRAM STARTED ON                              nid01793
 **    ****   ******    PROGRAM STARTED BY                              fionabio
 ***** **    ** ** **   PROGRAM PROCESS ID                                 42727
  **** **  *******  **  PROGRAM STARTED IN /fs3/d118/d118/fionabio/BioExcel2/cp2
                                           k_benchmarks/QMMM/QM_test/LSD_test/te
                                           st-4

 CP2K| version string:                                          CP2K version 6.1
 CP2K| source code revision number:                                    svn:18464
 CP2K| cp2kflags: omp libint fftw3 libxc elpa=201605 elpa_qr parallel mpi3 scala
 CP2K|            pack xsmm libgrid has_no_shared_glibc max_contr=4 statm_resident plumed2
 CP2K| is freely available from                            https://www.cp2k.org/
 CP2K| Program compiled at                          Fri Feb 15 14:17:25 GMT 2019
 CP2K| Program compiled on                                            eslogin007
 CP2K| Program compiled for                                               ARCHER
 CP2K| Data directory path                     /work/y07/y07/cp2k/6.1.18464/data
 CP2K| Input file name                                          noLSD_qmmm-4.inp

 GLOBAL| Force Environment number                                              1
 GLOBAL| Basis set file name                                           BASIS_SET
 GLOBAL| Potential file name                                           POTENTIAL
 GLOBAL| MM Potential file name                                     MM_POTENTIAL
 GLOBAL| Coordinate file name                                      __STD_INPUT__
 GLOBAL| Method name                                                        CP2K
 GLOBAL| Project name                                                     QMMM-4
 GLOBAL| Preferred FFT library                                             FFTW3
 GLOBAL| Preferred diagonalization lib.                                       SL
 GLOBAL| Run type                                                             MD
 GLOBAL| All-to-all communication in single precision                          F
 GLOBAL| FFTs using library dependent lengths                                  F
 GLOBAL| Global print level                                                  LOW
 GLOBAL| Total number of message passing processes                           192
 GLOBAL| Number of threads for this process                                    1
 GLOBAL| This output is from process                                           0
 GLOBAL| CPU model name :  Intel(R) Xeon(R) CPU E5-2697 v2 @ 2.70GHz

 MEMORY| system memory details [Kb]
 MEMORY|                        rank 0           min           max       average
 MEMORY| MemTotal             66072152      66072152      66072152      66072152
 MEMORY| MemFree              61215424      61194008      61298392      61258968
 MEMORY| Buffers                     0             0             0             0
 MEMORY| Cached                 276448        271988        276448        272553
 MEMORY| Slab                   267376        265028        270400        266707
 MEMORY| SReclaimable             8392          8368          8576          8453
 MEMORY| MemLikelyFree        61500264      61474560      61578976      61539974



                      ************* ******** ***********   
                     ************* **********************  
                     ****     **** ****      ***********   
                     ******** ****  *******     ****       
                     *******  ****   *******   ****        
                     ****     ****       ****  ****        
                     ****     **** **********  ****        
                      ****     **** ********    ****       
                     FRONTIERS IN SIMULATION TECHNOLOGY    
                                                           
                        C.J. Mundy, S. Balasubramanian,    
                     Ken Bagchi, J. Hutter, Ari Seitsonen  
                      IFW Kuo, T. Laino, J. VandeVondele   
                                 Version 1.0               

                                                           


 EWALD| Summation is done by:                                               SPME
 EWALD| Alpha parameter [       ANGSTROM^-1]                              0.4000
 EWALD| Real Space Cutoff [          ANGSTROM]                            8.4348
 EWALD| G-space max. Miller index                         80        80        80
 EWALD| Spline interpolation order                                             6

 FORCEFIELD| WARNING: A non Critical ForceField parameter is missing! CP2K GOES!
 FORCEFIELD| Non critical parameters are:Urey-Bradley,Torsions,Impropers, Opbends and 1-4
 FORCEFIELD| All missing parameters will not contribute to the potential energy!
 FORCEFIELD| Activate the print key FF_INFO to have a list of missing parameters

 CHARGE_INFO| Total Charge of the Classical System:                    -0.000000

 SPLINE_INFO| Generating 73920 splines for NONBONDED14 interactions 
              Due to 384 different atomic kinds
  ...7392  ...14784  ...22176  ...29568  ...36960  ...44352  ...51744  ...59136  ...66528  ...73920
 SPLINE_INFO| Number of unique splines computed:            137
 SPLINE_INFO| Done

 SPLINE_INFO| Generating 73920 splines for NONBONDED interactions 
              Due to 384 different atomic kinds
  ...7392  ...14784  ...22176  ...29568  ...36960  ...44352  ...51744  ...59136  ...66528  ...73920
 SPLINE_INFO| Number of unique splines computed:            137
 SPLINE_INFO| Done

 *******************************************************************************
 *******************************************************************************
 **                                                                           **
 **     #####                         ##              ##                      **
 **    ##   ##            ##          ##              ##                      **
 **   ##     ##                       ##            ######                    **
 **   ##     ##  ##   ##  ##   #####  ##  ##   ####   ##    #####    #####    **
 **   ##     ##  ##   ##  ##  ##      ## ##   ##      ##   ##   ##  ##   ##   **
 **   ##  ## ##  ##   ##  ##  ##      ####     ###    ##   ######   ######    **
 **    ##  ###   ##   ##  ##  ##      ## ##      ##   ##   ##       ##        **
 **     #######   #####   ##   #####  ##  ##  ####    ##    #####   ##        **
 **           ##                                                    ##        **
 **                                                                           **
 **                                                ... make the atoms dance   **
 **                                                                           **
 **            Copyright (C) by CP2K developers group (2000 - 2018)           **
 **                                                                           **
 *******************************************************************************


 TOTAL NUMBERS AND MAXIMUM NUMBERS

  Total number of            - Atomic kinds:                                   5
                             - Atoms:                                         84
                             - Shell sets:                                   168
                             - Shells:                                       332
                             - Primitive Cartesian functions:                420
                             - Cartesian basis functions:                    780
                             - Spherical basis functions:                    740

  Maximum angular momentum of- Orbital basis functions:                        2
                             - Local part of the GTH pseudopotential:          2
                             - Non-local part of the GTH pseudopotential:      0


 SCF PARAMETERS         Density guess:                                    ATOMIC
                        --------------------------------------------------------
                        max_scf:                                              30
                        max_scf_history:                                       0
                        max_diis:                                              4
                        --------------------------------------------------------
                        eps_scf:                                        1.00E-06
                        eps_scf_history:                                0.00E+00
                        eps_diis:                                       1.00E-01
                        eps_eigval:                                     1.00E-05
                        --------------------------------------------------------
                        level_shift [a.u.]:                                 0.00
                        --------------------------------------------------------
                        Outer loop SCF in use 
                        No variables optimised in outer loop
                        eps_scf                                         1.00E-06
                        max_scf                                               10
                        No outer loop optimization
                        step_size                                       5.00E-01

 *******************************************************************************
 *******************************************************************************
 **                                                                           **
 **             #######  ##     ## ##     ## ##     ##                        **
 **            ##     ## ###   ### ###   ### ###   ###                        **
 **            ##     ## #### #### #### #### #### ####                        **
 **            ##     ## ## ### ## ## ### ## ## ### ##                        **
 **            ##  ## ## ##     ## ##     ## ##     ##                        **
 **            ##    ##  ##     ## ##     ## ##     ##  T.Laino and F.Mohamed **
 **             ##### ## ##     ## ##     ## ##     ##  2005 - 2015           **
 **                                                                           **
 **                                                     Calculation Started.. **
 *******************************************************************************
 *******************************************************************************

 MD| Molecular Dynamics Protocol 
 MD| Ensemble Type                                                           NVT
 MD| Number of Time Steps                                                      5
 MD| Time Step [fs]                                                         1.00
 MD| Temperature [K]                                                      298.00
 MD| Temperature tolerance [K]                                              0.00
 MD| Print MD information every                                        1 step(s)
 MD| File type     Print frequency[steps]                             File names
 MD| Coordinates          100                                   QMMM-4-pos-1.xyz
 MD| Velocities             1                                   QMMM-4-vel-1.xyz
 MD| Energies               1                                      QMMM-4-1.ener
 MD| Dump                1000                                   QMMM-4-1.restart

 ROT| Rotational Analysis Info 
 ROT| Principal axes and moments of inertia in atomic units:
 ROT|                                1                 2                 3
 ROT| EIGENVALUES            0.684222771E+12   0.824984710E+12   0.857051527E+12
 ROT|      X                     0.994031516       0.079445441       0.074764740
 ROT|      Y                     0.053274698      -0.951557830       0.302819259
 ROT|      Z                    -0.095200583       0.297028818       0.950110904
 ROT| Numer of Rotovibrational vectors:     6

 Calculation of degrees of freedom
                                                      Number of atoms:     28264
                                 Number of Intramolecular constraints:         0
                                 Number of Intermolecular constraints:         0
                                  Invariants(translation + rotations):         3
                                                   Degrees of freedom:     84789


 Restraints Information
                                  Number of Intramolecular restraints:         0
                                  Number of Intermolecular restraints:         0

 THERMOSTAT| Thermostat Info for PARTICLES
 THERMOSTAT| Type of thermostat                               Nose-Hoover-Chains
 THERMOSTAT| Nose-Hoover-Chain length                                          3
 THERMOSTAT| Nose-Hoover-Chain time constant [  fs]                       100.00
 THERMOSTAT| Order of Yoshida integrator                                       3
 THERMOSTAT| Number of multiple time steps                                     2
 THERMOSTAT| Initial Potential Energy                                   0.000000
 THERMOSTAT| Initial Kinetic Energy                                     0.000472
 THERMOSTAT| End of Thermostat Info for PARTICLES

 ************************** Velocities initialization **************************
 Initial Temperature                                                    299.25 K
 COM velocity:            0.000000000000      0.000000000000     -0.000000000000
 *******************************************************************************


  Translating the system in order to center the QM fragment in the QM box.

 Number of electrons:                                                        226
 Number of occupied orbitals:                                                113
 Number of molecular orbitals:                                               113

 Number of orbital functions:                                                740
 Number of independent orbital functions:                                    740

 Extrapolation method: initial_guess


 SCF WAVEFUNCTION OPTIMIZATION

  ----------------------------------- OT ---------------------------------------
  Minimizer      : DIIS                : direct inversion
                                         in the iterative subspace
                                         using   7 DIIS vectors
                                         safer DIIS on
  Preconditioner : FULL_SINGLE_INVERSE : inversion of 
                                         H + eS - 2*(Sc)(c^T*H*c+const)(Sc)^T
  Precond_solver : DEFAULT
  stepsize       :    0.08000000                  energy_gap     :    0.08000000
  eps_taylor     :   0.10000E-15                  max_taylor     :             4
  ----------------------------------- OT ---------------------------------------

  Step     Update method      Time    Convergence         Total energy    Change
  ------------------------------------------------------------------------------
     1 OT DIIS     0.80E-01    1.5     0.04454133      -340.5044127790 -3.41E+02
     2 OT DIIS     0.80E-01    1.7     0.03253703      -350.1541982476 -9.65E+00
     3 OT DIIS     0.80E-01    1.7     0.02526910      -354.8758512774 -4.72E+00
     4 OT DIIS     0.80E-01    1.7     0.01631343      -358.5168689017 -3.64E+00
     5 OT DIIS     0.80E-01    1.7     0.01031922      -360.3600141055 -1.84E+00
     6 OT DIIS     0.80E-01    1.8     0.00646079      -361.2377965506 -8.78E-01
     7 OT DIIS     0.80E-01    1.7     0.00453826      -361.6017737573 -3.64E-01
     8 OT DIIS     0.80E-01    1.7     0.00335924      -361.7862669571 -1.84E-01
     9 OT DIIS     0.80E-01    1.7     0.00255440      -361.9061151287 -1.20E-01
    10 OT DIIS     0.80E-01    1.7     0.00204694      -361.9845087574 -7.84E-02
    11 OT DIIS     0.80E-01    1.7     0.00169610      -362.0415992371 -5.71E-02
    12 OT DIIS     0.80E-01    1.7     0.00139332      -362.0921093900 -5.05E-02
    13 OT DIIS     0.80E-01    1.7     0.00122575      -362.1269774138 -3.49E-02
    14 OT DIIS     0.80E-01    1.7     0.00109549      -362.1517041366 -2.47E-02
    15 OT DIIS     0.80E-01    1.7     0.00099625      -362.1761005874 -2.44E-02
    16 OT DIIS     0.80E-01    1.7     0.00092430      -362.1939779122 -1.79E-02
    17 OT DIIS     0.80E-01    1.8     0.00086613      -362.2096157791 -1.56E-02
    18 OT DIIS     0.80E-01    1.9     0.00081174      -362.2250309068 -1.54E-02
    19 OT DIIS     0.80E-01    1.7     0.00075700      -362.2372465818 -1.22E-02
    20 OT DIIS     0.80E-01    1.8     0.00070592      -362.2493786364 -1.21E-02
    21 OT DIIS     0.80E-01    1.7     0.00064643      -362.2616452174 -1.23E-02
    22 OT DIIS     0.80E-01    1.7     0.00059807      -362.2707657075 -9.12E-03
    23 OT DIIS     0.80E-01    2.5     0.00053210      -362.2821787104 -1.14E-02
    24 OT DIIS     0.80E-01    1.7     0.00048857      -362.2880795765 -5.90E-03
    25 OT DIIS     0.80E-01    1.7     0.00046247      -362.2972941001 -9.21E-03
    26 OT DIIS     0.80E-01    1.7     0.00040775      -362.2982534266 -9.59E-04
    27 OT DIIS     0.80E-01    1.7     0.00040321      -362.3057790834 -7.53E-03
    28 OT DIIS     0.80E-01    1.7     0.00033618      -362.3092668936 -3.49E-03
    29 OT DIIS     0.80E-01    1.7     0.00029831      -362.3130670456 -3.80E-03
    30 OT DIIS     0.80E-01    1.7     0.00027594      -362.3157781669 -2.71E-03

  Leaving inner SCF loop after reaching    30 steps.


  Electronic density on regular grids:       -226.0000000085       -0.0000000085
  Core density on regular grids:              225.9999999871       -0.0000000129
  Total charge density on r-space grids:       -0.0000000214
  Total charge density g-space grids:          -0.0000000214

  Overlap energy of the core charge distribution:               0.00001341131030
  Self energy of the core charge distribution:               -887.32449380202411
  Core Hamiltonian energy:                                    270.84293450839903
  Hartree energy:                                             361.08269465018611
  Exchange-correlation energy:                               -103.32766459253773
  QM/MM Electrostatic energy:                                  -3.58926234221965

  Total energy:                                              -362.31577816688605

  outer SCF iter =    1 RMS gradient =   0.28E-03 energy =       -362.3157781669

  ----------------------------------- OT ---------------------------------------
  Minimizer      : DIIS                : direct inversion
                                         in the iterative subspace
                                         using   7 DIIS vectors
                                         safer DIIS on
  Preconditioner : FULL_SINGLE_INVERSE : inversion of 
                                         H + eS - 2*(Sc)(c^T*H*c+const)(Sc)^T
  Precond_solver : DEFAULT
  stepsize       :    0.08000000                  energy_gap     :    0.08000000
  eps_taylor     :   0.10000E-15                  max_taylor     :             4
  ----------------------------------- OT ---------------------------------------

  Step     Update method      Time    Convergence         Total energy    Change
  ------------------------------------------------------------------------------
     1 OT DIIS     0.80E-01    3.5     0.00113161      -362.3186709484 -2.89E-03
     2 OT DIIS     0.80E-01    1.7     0.00082763      -362.3252161765 -6.55E-03
     3 OT DIIS     0.80E-01    1.7     0.00075185      -362.3288556507 -3.64E-03
     4 OT DIIS     0.80E-01    1.7     0.00061983      -362.3325810370 -3.73E-03
     5 OT DIIS     0.80E-01    1.7     0.00046969      -362.3352903640 -2.71E-03
     6 OT DIIS     0.80E-01    1.6     0.00037418      -362.3366120443 -1.32E-03
     7 OT DIIS     0.80E-01    1.7     0.00031279      -362.3376989894 -1.09E-03
     8 OT DIIS     0.80E-01    1.7     0.00018408      -362.3381787139 -4.80E-04
     9 OT DIIS     0.80E-01    1.7     0.00012550      -362.3383137495 -1.35E-04
    10 OT DIIS     0.80E-01    1.6     0.00010064      -362.3383941166 -8.04E-05
    11 OT DIIS     0.80E-01    1.6     0.00008245      -362.3384524754 -5.84E-05
    12 OT DIIS     0.80E-01    1.7     0.00007103      -362.3385245535 -7.21E-05
    13 OT DIIS     0.80E-01    1.7     0.00006496      -362.3385752464 -5.07E-05
    14 OT DIIS     0.80E-01    1.9     0.00005863      -362.3386195685 -4.43E-05
    15 OT DIIS     0.80E-01    1.7     0.00005166      -362.3386559729 -3.64E-05
    16 OT DIIS     0.80E-01    1.7     0.00004641      -362.3386987411 -4.28E-05
    17 OT DIIS     0.80E-01    1.7     0.00004178      -362.3387203117 -2.16E-05
    18 OT DIIS     0.80E-01    1.7     0.00003593      -362.3387460156 -2.57E-05
    19 OT DIIS     0.80E-01    1.7     0.00003069      -362.3387620300 -1.60E-05
    20 OT DIIS     0.80E-01    1.7     0.00002664      -362.3387749618 -1.29E-05
    21 OT DIIS     0.80E-01    1.7     0.00002282      -362.3387846087 -9.65E-06
    22 OT DIIS     0.80E-01    1.7     0.00002128      -362.3387900613 -5.45E-06
    23 OT DIIS     0.80E-01    1.7     0.00001737      -362.3387927159 -2.65E-06
    24 OT DIIS     0.80E-01    1.7     0.00001378      -362.3387943845 -1.67E-06
    25 OT DIIS     0.80E-01    1.7     0.00001195      -362.3387950263 -6.42E-07
    26 OT DIIS     0.80E-01    1.6     0.00001001      -362.3387955021 -4.76E-07
    27 OT DIIS     0.80E-01    1.7     0.00000832      -362.3387957781 -2.76E-07
    28 OT DIIS     0.80E-01    1.7     0.00000714      -362.3387959609 -1.83E-07
    29 OT DIIS     0.80E-01    1.7     0.00000613      -362.3387960551 -9.43E-08
    30 OT DIIS     0.80E-01    1.6     0.00000562      -362.3387961232 -6.81E-08

  Leaving inner SCF loop after reaching    30 steps.


  Electronic density on regular grids:       -226.0000000086       -0.0000000086
  Core density on regular grids:              225.9999999871       -0.0000000129
  Total charge density on r-space grids:       -0.0000000215
  Total charge density g-space grids:          -0.0000000215

  Overlap energy of the core charge distribution:               0.00001341131030
  Self energy of the core charge distribution:               -887.32449380202411
  Core Hamiltonian energy:                                    270.81389644774856
  Hartree energy:                                             361.09425368014882
  Exchange-correlation energy:                               -103.33245346871514
  QM/MM Electrostatic energy:                                  -3.59001239171105

  Total energy:                                              -362.33879612324262

  outer SCF iter =    2 RMS gradient =   0.56E-05 energy =       -362.3387961232

  ----------------------------------- OT ---------------------------------------
  Minimizer      : DIIS                : direct inversion
                                         in the iterative subspace
                                         using   7 DIIS vectors
                                         safer DIIS on
  Preconditioner : FULL_SINGLE_INVERSE : inversion of 
                                         H + eS - 2*(Sc)(c^T*H*c+const)(Sc)^T
  Precond_solver : DEFAULT
  stepsize       :    0.08000000                  energy_gap     :    0.08000000
  eps_taylor     :   0.10000E-15                  max_taylor     :             4
  ----------------------------------- OT ---------------------------------------

  Step     Update method      Time    Convergence         Total energy    Change
  ------------------------------------------------------------------------------
     1 OT DIIS     0.80E-01    3.3     0.00000520      -362.3387962020 -7.87E-08
     2 OT DIIS     0.80E-01    1.6     0.00000746      -362.3387963003 -9.83E-08
     3 OT DIIS     0.80E-01    1.6     0.00000406      -362.3387963730 -7.27E-08
     4 OT DIIS     0.80E-01    1.6     0.00000414      -362.3387965752 -2.02E-07
     5 OT DIIS     0.80E-01    1.6     0.00000296      -362.3387969431 -3.68E-07
     6 OT DIIS     0.80E-01    1.6     0.00000163      -362.3387969905 -4.74E-08
     7 OT DIIS     0.80E-01    1.6     0.00000150      -362.3387970125 -2.19E-08
     8 OT DIIS     0.80E-01    1.6     0.00000107      -362.3387970662 -5.38E-08
     9 OT DIIS     0.80E-01    1.7     0.00000114      -362.3387970702 -3.94E-09
    10 OT DIIS     0.80E-01    1.7     0.00000068      -362.3387970886 -1.84E-08

  *** SCF run converged in    10 steps ***


  Electronic density on regular grids:       -226.0000000086       -0.0000000086
  Core density on regular grids:              225.9999999871       -0.0000000129
  Total charge density on r-space grids:       -0.0000000215
  Total charge density g-space grids:          -0.0000000215

  Overlap energy of the core charge distribution:               0.00001341131030
  Self energy of the core charge distribution:               -887.32449380202411
  Core Hamiltonian energy:                                    270.81384057075604
  Hartree energy:                                             361.09438979586855
  Exchange-correlation energy:                               -103.33250598398638
  QM/MM Electrostatic energy:                                  -3.59004108050490

  Total energy:                                              -362.33879708858052

  outer SCF iter =    3 RMS gradient =   0.68E-06 energy =       -362.3387970886
  outer SCF loop converged in   3 iterations or   70 steps


 ENERGY| Total FORCE_EVAL ( QMMM ) energy (a.u.):           -484.105023654613149


 MD_ENERGIES| Initialization proceeding


 ******************************** GO CP2K GO! **********************************
 INITIAL POTENTIAL ENERGY[hartree]     =                     -0.484105023655E+03
 TOTAL INITIAL KINETIC ENERGY[hartree] =                      0.401759497934E+02
 QM INITIAL KINETIC ENERGY[hartree]    =                      0.140499333878E+00
 TOTAL INITIAL TEMPERATURE[K]          =                                 299.250
 QM INITIAL TEMPERATURE[K]             =                                 352.112
 INITIAL VOLUME[bohr^3]                =                      0.200731366996E+07
 INITIAL CELL LNTHS[bohr]   =      0.1406963E+03   0.1233340E+03   0.1156777E+03
 INITIAL CELL ANGLS[deg]    =      0.9000000E+02   0.9000000E+02   0.9000000E+02
 ******************************** GO CP2K GO! **********************************

  Translating the system in order to center the QM fragment in the QM box.

 Number of electrons:                                                        226
 Number of occupied orbitals:                                                113
 Number of molecular orbitals:                                               113

 Number of orbital functions:                                                740
 Number of independent orbital functions:                                    740

 Extrapolation method: ASPC


 SCF WAVEFUNCTION OPTIMIZATION

  ----------------------------------- OT ---------------------------------------
  Minimizer      : DIIS                : direct inversion
                                         in the iterative subspace
                                         using   7 DIIS vectors
                                         safer DIIS on
  Preconditioner : FULL_SINGLE_INVERSE : inversion of 
                                         H + eS - 2*(Sc)(c^T*H*c+const)(Sc)^T
  Precond_solver : DEFAULT
  stepsize       :    0.08000000                  energy_gap     :    0.08000000
  eps_taylor     :   0.10000E-15                  max_taylor     :             4
  ----------------------------------- OT ---------------------------------------

  Step     Update method      Time    Convergence         Total energy    Change
  ------------------------------------------------------------------------------
     1 OT DIIS     0.80E-01    1.3     0.00091456      -362.6313447498 -3.63E+02
     2 OT DIIS     0.80E-01    1.7     0.00051172      -362.6350006069 -3.66E-03
     3 OT DIIS     0.80E-01    1.7     0.00040620      -362.6359805203 -9.80E-04
     4 OT DIIS     0.80E-01    1.7     0.00030391      -362.6364787362 -4.98E-04
     5 OT DIIS     0.80E-01    1.6     0.00014925      -362.6366334328 -1.55E-04
     6 OT DIIS     0.80E-01    1.6     0.00006958      -362.6366818302 -4.84E-05
     7 OT DIIS     0.80E-01    1.9     0.00003906      -362.6366958595 -1.40E-05
     8 OT DIIS     0.80E-01    1.7     0.00002705      -362.6366995729 -3.71E-06
     9 OT DIIS     0.80E-01    1.7     0.00001833      -362.6367006660 -1.09E-06
    10 OT DIIS     0.80E-01    1.6     0.00000934      -362.6367011700 -5.04E-07
    11 OT DIIS     0.80E-01    1.7     0.00000514      -362.6367013711 -2.01E-07
    12 OT DIIS     0.80E-01    1.6     0.00000385      -362.6367014529 -8.18E-08
    13 OT DIIS     0.80E-01    1.6     0.00000336      -362.6367014869 -3.40E-08
    14 OT DIIS     0.80E-01    1.6     0.00000216      -362.6367015129 -2.59E-08
    15 OT DIIS     0.80E-01    1.6     0.00000171      -362.6367015331 -2.03E-08
    16 OT DIIS     0.80E-01    1.6     0.00000152      -362.6367015489 -1.58E-08
    17 OT DIIS     0.80E-01    1.6     0.00000147      -362.6367015654 -1.65E-08
    18 OT DIIS     0.80E-01    1.6     0.00000126      -362.6367015858 -2.04E-08
    19 OT DIIS     0.80E-01    1.9     0.00000109      -362.6367015994 -1.36E-08
    20 OT DIIS     0.80E-01    1.9     0.00000091      -362.6367016139 -1.45E-08

  *** SCF run converged in    20 steps ***


  Electronic density on regular grids:       -226.0000000094       -0.0000000094
  Core density on regular grids:              225.9999999870       -0.0000000130
  Total charge density on r-space grids:       -0.0000000225
  Total charge density g-space grids:          -0.0000000225

  Overlap energy of the core charge distribution:               0.00001164886551
  Self energy of the core charge distribution:               -887.32449380202411
  Core Hamiltonian energy:                                    270.66703570010480
  Hartree energy:                                             361.19260631956723
  Exchange-correlation energy:                               -103.29414933200287
  QM/MM Electrostatic energy:                                  -3.87771214841146

  Total energy:                                              -362.63670161390087

  outer SCF iter =    1 RMS gradient =   0.91E-06 energy =       -362.6367016139
  outer SCF loop converged in   1 iterations or   20 steps


 ENERGY| Total FORCE_EVAL ( QMMM ) energy (a.u.):           -484.052369544389251


 *******************************************************************************
 ENSEMBLE TYPE                =                                              NVT
 STEP NUMBER                  =                                                1
 TIME [fs]                    =                                         1.000000
 CONSERVED QUANTITY [hartree] =                              -0.443891748112E+03

                                              INSTANTANEOUS             AVERAGES
 CPU TIME [s]                 =                      246.20               246.20
 ENERGY DRIFT PER ATOM [K]    =          0.411743748562E+00   0.000000000000E+00
 POTENTIAL ENERGY[hartree]    =         -0.484052369544E+03  -0.484052369544E+03
 TOTAL KINETIC ENERGY[hartree]=          0.401573743634E+02   0.401573743634E+02
 QM KINETIC ENERGY[hartree]   =          0.148830851584E+00   0.148830851584E+00
 TOTAL TEMPERATURE[K]         =                     299.111              299.111
 QM TEMPERATURE[K]            =                     372.992              372.992
 *******************************************************************************


  Translating the system in order to center the QM fragment in the QM box.

 Number of electrons:                                                        226
 Number of occupied orbitals:                                                113
 Number of molecular orbitals:                                               113

 Number of orbital functions:                                                740
 Number of independent orbital functions:                                    740

 Extrapolation method: ASPC


 SCF WAVEFUNCTION OPTIMIZATION

  ----------------------------------- OT ---------------------------------------
  Minimizer      : DIIS                : direct inversion
                                         in the iterative subspace
                                         using   7 DIIS vectors
                                         safer DIIS on
  Preconditioner : FULL_SINGLE_INVERSE : inversion of 
                                         H + eS - 2*(Sc)(c^T*H*c+const)(Sc)^T
  Precond_solver : DEFAULT
  stepsize       :    0.08000000                  energy_gap     :    0.08000000
  eps_taylor     :   0.10000E-15                  max_taylor     :             4
  ----------------------------------- OT ---------------------------------------

  Step     Update method      Time    Convergence         Total energy    Change
  ------------------------------------------------------------------------------
     1 OT DIIS     0.80E-01    1.4     0.00038283      -362.4804980920 -3.62E+02
     2 OT DIIS     0.80E-01    1.7     0.00023460      -362.4810573800 -5.59E-04
     3 OT DIIS     0.80E-01    2.0     0.00016103      -362.4812003994 -1.43E-04
     4 OT DIIS     0.80E-01    1.7     0.00009552      -362.4812924897 -9.21E-05
     5 OT DIIS     0.80E-01    1.7     0.00007315      -362.4813125378 -2.00E-05
     6 OT DIIS     0.80E-01    1.7     0.00003713      -362.4813213654 -8.83E-06
     7 OT DIIS     0.80E-01    1.7     0.00001980      -362.4813249678 -3.60E-06
     8 OT DIIS     0.80E-01    1.7     0.00001442      -362.4813261949 -1.23E-06
     9 OT DIIS     0.80E-01    1.7     0.00001053      -362.4813268524 -6.57E-07
    10 OT DIIS     0.80E-01    1.7     0.00000812      -362.4813272774 -4.25E-07
    11 OT DIIS     0.80E-01    1.7     0.00000706      -362.4813276976 -4.20E-07
    12 OT DIIS     0.80E-01    1.7     0.00000619      -362.4813281502 -4.53E-07
    13 OT DIIS     0.80E-01    1.7     0.00000607      -362.4813286143 -4.64E-07
    14 OT DIIS     0.80E-01    1.7     0.00000569      -362.4813289311 -3.17E-07
    15 OT DIIS     0.80E-01    1.6     0.00000419      -362.4813292653 -3.34E-07
    16 OT DIIS     0.80E-01    1.7     0.00000341      -362.4813295018 -2.37E-07
    17 OT DIIS     0.80E-01    1.7     0.00000269      -362.4813296237 -1.22E-07
    18 OT DIIS     0.80E-01    1.6     0.00000192      -362.4813296672 -4.35E-08
    19 OT DIIS     0.80E-01    1.7     0.00000141      -362.4813296864 -1.91E-08
    20 OT DIIS     0.80E-01    1.6     0.00000091      -362.4813296928 -6.39E-09

  *** SCF run converged in    20 steps ***


  Electronic density on regular grids:       -226.0000000000        0.0000000000
  Core density on regular grids:              225.9999999871       -0.0000000129
  Total charge density on r-space grids:       -0.0000000129
  Total charge density g-space grids:          -0.0000000129

  Overlap energy of the core charge distribution:               0.00001125545680
  Self energy of the core charge distribution:               -887.32449380202411
  Core Hamiltonian energy:                                    270.48766980811200
  Hartree energy:                                             361.31929248131439
  Exchange-correlation energy:                               -103.24785221395854
  QM/MM Electrostatic energy:                                  -3.71595722166948

  Total energy:                                              -362.48132969276901

  outer SCF iter =    1 RMS gradient =   0.91E-06 energy =       -362.4813296928
  outer SCF loop converged in   1 iterations or   20 steps


 ENERGY| Total FORCE_EVAL ( QMMM ) energy (a.u.):           -484.064784174770807


 *******************************************************************************
 ENSEMBLE TYPE                =                                              NVT
 STEP NUMBER                  =                                                2
 TIME [fs]                    =                                         2.000000
 CONSERVED QUANTITY [hartree] =                              -0.443894935663E+03

                                              INSTANTANEOUS             AVERAGES
 CPU TIME [s]                 =                       79.72               162.96
 ENERGY DRIFT PER ATOM [K]    =          0.376131382566E+00   0.188065691283E+00
 POTENTIAL ENERGY[hartree]    =         -0.484064784175E+03  -0.484058576860E+03
 TOTAL KINETIC ENERGY[hartree]=          0.401637960092E+02   0.401605851863E+02
 QM KINETIC ENERGY[hartree]   =          0.155674580160E+00   0.152252715872E+00
 TOTAL TEMPERATURE[K]         =                     299.159              299.135
 QM TEMPERATURE[K]            =                     390.144              381.568
 *******************************************************************************


  Translating the system in order to center the QM fragment in the QM box.

 Number of electrons:                                                        226
 Number of occupied orbitals:                                                113
 Number of molecular orbitals:                                               113

 Number of orbital functions:                                                740
 Number of independent orbital functions:                                    740

 Extrapolation method: ASPC


 SCF WAVEFUNCTION OPTIMIZATION

  ----------------------------------- OT ---------------------------------------
  Minimizer      : DIIS                : direct inversion
                                         in the iterative subspace
                                         using   7 DIIS vectors
                                         safer DIIS on
  Preconditioner : FULL_SINGLE_INVERSE : inversion of 
                                         H + eS - 2*(Sc)(c^T*H*c+const)(Sc)^T
  Precond_solver : DEFAULT
  stepsize       :    0.08000000                  energy_gap     :    0.08000000
  eps_taylor     :   0.10000E-15                  max_taylor     :             4
  ----------------------------------- OT ---------------------------------------

  Step     Update method      Time    Convergence         Total energy    Change
  ------------------------------------------------------------------------------
     1 OT DIIS     0.80E-01    1.5     0.00038754      -362.8086810093 -3.63E+02
     2 OT DIIS     0.80E-01    1.7     0.00023873      -362.8091963185 -5.15E-04
     3 OT DIIS     0.80E-01    1.6     0.00015174      -362.8093228844 -1.27E-04
     4 OT DIIS     0.80E-01    1.6     0.00007789      -362.8093974253 -7.45E-05
     5 OT DIIS     0.80E-01    1.6     0.00005939      -362.8094171490 -1.97E-05
     6 OT DIIS     0.80E-01    1.6     0.00003312      -362.8094234555 -6.31E-06
     7 OT DIIS     0.80E-01    1.7     0.00001887      -362.8094263155 -2.86E-06
     8 OT DIIS     0.80E-01    1.6     0.00001357      -362.8094273359 -1.02E-06
     9 OT DIIS     0.80E-01    1.6     0.00001019      -362.8094278822 -5.46E-07
    10 OT DIIS     0.80E-01    1.6     0.00000769      -362.8094282896 -4.07E-07
    11 OT DIIS     0.80E-01    1.6     0.00000665      -362.8094286805 -3.91E-07
    12 OT DIIS     0.80E-01    1.6     0.00000585      -362.8094291083 -4.28E-07
    13 OT DIIS     0.80E-01    1.6     0.00000529      -362.8094295408 -4.33E-07
    14 OT DIIS     0.80E-01    1.6     0.00000531      -362.8094298633 -3.22E-07
    15 OT DIIS     0.80E-01    1.7     0.00000384      -362.8094301394 -2.76E-07
    16 OT DIIS     0.80E-01    1.6     0.00000317      -362.8094302944 -1.55E-07
    17 OT DIIS     0.80E-01    1.6     0.00000237      -362.8094303742 -7.98E-08
    18 OT DIIS     0.80E-01    1.7     0.00000173      -362.8094303979 -2.38E-08
    19 OT DIIS     0.80E-01    1.7     0.00000117      -362.8094304118 -1.39E-08
    20 OT DIIS     0.80E-01    2.6     0.00000078      -362.8094304151 -3.27E-09

  *** SCF run converged in    20 steps ***


  Electronic density on regular grids:       -225.9999999952        0.0000000048
  Core density on regular grids:              225.9999999872       -0.0000000128
  Total charge density on r-space grids:       -0.0000000081
  Total charge density g-space grids:          -0.0000000081

  Overlap energy of the core charge distribution:               0.00001136816351
  Self energy of the core charge distribution:               -887.32449380202411
  Core Hamiltonian energy:                                    270.28971334583451
  Hartree energy:                                             361.46039317250546
  Exchange-correlation energy:                               -103.19883894449140
  QM/MM Electrostatic energy:                                  -4.03621555505300

  Total energy:                                              -362.80943041506492

  outer SCF iter =    1 RMS gradient =   0.78E-06 energy =       -362.8094304151
  outer SCF loop converged in   1 iterations or   20 steps


 ENERGY| Total FORCE_EVAL ( QMMM ) energy (a.u.):           -484.126299473217102


 *******************************************************************************
 ENSEMBLE TYPE                =                                              NVT
 STEP NUMBER                  =                                                3
 TIME [fs]                    =                                         3.000000
 CONSERVED QUANTITY [hartree] =                              -0.443905931543E+03

                                              INSTANTANEOUS             AVERAGES
 CPU TIME [s]                 =                       79.58               135.17
 ENERGY DRIFT PER ATOM [K]    =          0.253281823846E+00   0.209804402137E+00
 POTENTIAL ENERGY[hartree]    =         -0.484126299473E+03  -0.484081151064E+03
 TOTAL KINETIC ENERGY[hartree]=          0.402114757534E+02   0.401775487087E+02
 QM KINETIC ENERGY[hartree]   =          0.162616779883E+00   0.155707403876E+00
 TOTAL TEMPERATURE[K]         =                     299.514              299.262
 QM TEMPERATURE[K]            =                     407.542              390.226
 *******************************************************************************


  Translating the system in order to center the QM fragment in the QM box.

 Number of electrons:                                                        226
 Number of occupied orbitals:                                                113
 Number of molecular orbitals:                                               113

 Number of orbital functions:                                                740
 Number of independent orbital functions:                                    740

 Extrapolation method: ASPC


 SCF WAVEFUNCTION OPTIMIZATION

  ----------------------------------- OT ---------------------------------------
  Minimizer      : DIIS                : direct inversion
                                         in the iterative subspace
                                         using   7 DIIS vectors
                                         safer DIIS on
  Preconditioner : FULL_SINGLE_INVERSE : inversion of 
                                         H + eS - 2*(Sc)(c^T*H*c+const)(Sc)^T
  Precond_solver : DEFAULT
  stepsize       :    0.08000000                  energy_gap     :    0.08000000
  eps_taylor     :   0.10000E-15                  max_taylor     :             4
  ----------------------------------- OT ---------------------------------------

  Step     Update method      Time    Convergence         Total energy    Change
  ------------------------------------------------------------------------------
     1 OT DIIS     0.80E-01    1.3     0.00044676      -362.5869012297 -3.63E+02
     2 OT DIIS     0.80E-01    1.6     0.00024880      -362.5876572819 -7.56E-04
     3 OT DIIS     0.80E-01    1.6     0.00018596      -362.5878205444 -1.63E-04
     4 OT DIIS     0.80E-01    1.6     0.00009467      -362.5879247015 -1.04E-04
     5 OT DIIS     0.80E-01    1.7     0.00007456      -362.5879555940 -3.09E-05
     6 OT DIIS     0.80E-01    1.7     0.00004038      -362.5879657374 -1.01E-05
     7 OT DIIS     0.80E-01    1.7     0.00001993      -362.5879698997 -4.16E-06
     8 OT DIIS     0.80E-01    1.7     0.00001380      -362.5879710603 -1.16E-06
     9 OT DIIS     0.80E-01    1.7     0.00001060      -362.5879715607 -5.00E-07
    10 OT DIIS     0.80E-01    1.7     0.00000720      -362.5879719127 -3.52E-07
    11 OT DIIS     0.80E-01    1.6     0.00000600      -362.5879722293 -3.17E-07
    12 OT DIIS     0.80E-01    1.6     0.00000508      -362.5879725211 -2.92E-07
    13 OT DIIS     0.80E-01    1.8     0.00000453      -362.5879727803 -2.59E-07
    14 OT DIIS     0.80E-01    1.6     0.00000407      -362.5879729571 -1.77E-07
    15 OT DIIS     0.80E-01    1.7     0.00000291      -362.5879730691 -1.12E-07
    16 OT DIIS     0.80E-01    1.6     0.00000218      -362.5879731369 -6.78E-08
    17 OT DIIS     0.80E-01    1.6     0.00000179      -362.5879731593 -2.24E-08
    18 OT DIIS     0.80E-01    1.6     0.00000125      -362.5879731679 -8.66E-09
    19 OT DIIS     0.80E-01    1.7     0.00000077      -362.5879731721 -4.14E-09

  *** SCF run converged in    19 steps ***


  Electronic density on regular grids:       -225.9999999927        0.0000000073
  Core density on regular grids:              225.9999999871       -0.0000000129
  Total charge density on r-space grids:       -0.0000000056
  Total charge density g-space grids:          -0.0000000056

  Overlap energy of the core charge distribution:               0.00001138309090
  Self energy of the core charge distribution:               -887.32449380202411
  Core Hamiltonian energy:                                    270.06691032966683
  Hartree energy:                                             361.61805900809503
  Exchange-correlation energy:                               -103.14337277462113
  QM/MM Electrostatic energy:                                  -3.80508731629296

  Total energy:                                              -362.58797317208547

  outer SCF iter =    1 RMS gradient =   0.77E-06 energy =       -362.5879731721
  outer SCF loop converged in   1 iterations or   19 steps


 ENERGY| Total FORCE_EVAL ( QMMM ) energy (a.u.):           -484.141163449752526


 *******************************************************************************
 ENSEMBLE TYPE                =                                              NVT
 STEP NUMBER                  =                                                4
 TIME [fs]                    =                                         4.000000
 CONSERVED QUANTITY [hartree] =                              -0.443890117335E+03

                                              INSTANTANEOUS             AVERAGES
 CPU TIME [s]                 =                       76.65               120.54
 ENERGY DRIFT PER ATOM [K]    =          0.429963325405E+00   0.264844132954E+00
 POTENTIAL ENERGY[hartree]    =         -0.484141163450E+03  -0.484096154161E+03
 TOTAL KINETIC ENERGY[hartree]=          0.402392711859E+02   0.401929793280E+02
 QM KINETIC ENERGY[hartree]   =          0.171817362954E+00   0.159734893645E+00
 TOTAL TEMPERATURE[K]         =                     299.721              299.377
 QM TEMPERATURE[K]            =                     430.600              400.319
 *******************************************************************************


  Translating the system in order to center the QM fragment in the QM box.

 Number of electrons:                                                        226
 Number of occupied orbitals:                                                113
 Number of molecular orbitals:                                               113

 Number of orbital functions:                                                740
 Number of independent orbital functions:                                    740

 Extrapolation method: ASPC


 SCF WAVEFUNCTION OPTIMIZATION

  ----------------------------------- OT ---------------------------------------
  Minimizer      : DIIS                : direct inversion
                                         in the iterative subspace
                                         using   7 DIIS vectors
                                         safer DIIS on
  Preconditioner : FULL_SINGLE_INVERSE : inversion of 
                                         H + eS - 2*(Sc)(c^T*H*c+const)(Sc)^T
  Precond_solver : DEFAULT
  stepsize       :    0.08000000                  energy_gap     :    0.08000000
  eps_taylor     :   0.10000E-15                  max_taylor     :             4
  ----------------------------------- OT ---------------------------------------

  Step     Update method      Time    Convergence         Total energy    Change
  ------------------------------------------------------------------------------
     1 OT DIIS     0.80E-01    1.3     0.00048271      -362.2425149386 -3.62E+02
     2 OT DIIS     0.80E-01    1.6     0.00029230      -362.2434280389 -9.13E-04
     3 OT DIIS     0.80E-01    1.7     0.00021860      -362.2436583548 -2.30E-04
     4 OT DIIS     0.80E-01    1.7     0.00010953      -362.2438257253 -1.67E-04
     5 OT DIIS     0.80E-01    1.7     0.00008549      -362.2438731793 -4.75E-05
     6 OT DIIS     0.80E-01    1.7     0.00005241      -362.2438870753 -1.39E-05
     7 OT DIIS     0.80E-01    1.7     0.00002446      -362.2438934901 -6.41E-06
     8 OT DIIS     0.80E-01    1.7     0.00001787      -362.2438954061 -1.92E-06
     9 OT DIIS     0.80E-01    1.6     0.00001449      -362.2438965909 -1.18E-06
    10 OT DIIS     0.80E-01    1.7     0.00001112      -362.2438973995 -8.09E-07
    11 OT DIIS     0.80E-01    1.6     0.00000925      -362.2438985334 -1.13E-06
    12 OT DIIS     0.80E-01    1.7     0.00000790      -362.2438994807 -9.47E-07
    13 OT DIIS     0.80E-01    1.8     0.00000641      -362.2439003220 -8.41E-07
    14 OT DIIS     0.80E-01    1.6     0.00000653      -362.2439007005 -3.79E-07
    15 OT DIIS     0.80E-01    1.7     0.00000407      -362.2439009020 -2.01E-07
    16 OT DIIS     0.80E-01    1.7     0.00000286      -362.2439009967 -9.47E-08
    17 OT DIIS     0.80E-01    1.7     0.00000227      -362.2439010331 -3.64E-08
    18 OT DIIS     0.80E-01    1.6     0.00000152      -362.2439010443 -1.12E-08
    19 OT DIIS     0.80E-01    1.7     0.00000101      -362.2439010487 -4.40E-09
    20 OT DIIS     0.80E-01    1.6     0.00000070      -362.2439010508 -2.07E-09

  *** SCF run converged in    20 steps ***


  Electronic density on regular grids:       -225.9999999892        0.0000000108
  Core density on regular grids:              225.9999999869       -0.0000000131
  Total charge density on r-space grids:       -0.0000000022
  Total charge density g-space grids:          -0.0000000022

  Overlap energy of the core charge distribution:               0.00001146205347
  Self energy of the core charge distribution:               -887.32449380202411
  Core Hamiltonian energy:                                    269.82317503770844
  Hartree energy:                                             361.78953806587617
  Exchange-correlation energy:                               -103.08085972550033
  QM/MM Electrostatic energy:                                  -3.45127208890711

  Total energy:                                              -362.24390105079340

  outer SCF iter =    1 RMS gradient =   0.70E-06 energy =       -362.2439010508
  outer SCF loop converged in   1 iterations or   20 steps


 ENERGY| Total FORCE_EVAL ( QMMM ) energy (a.u.):           -484.345276349003882


 *******************************************************************************
 ENSEMBLE TYPE                =                                              NVT
 STEP NUMBER                  =                                                5
 TIME [fs]                    =                                         5.000000
 CONSERVED QUANTITY [hartree] =                              -0.443918355591E+03

                                              INSTANTANEOUS             AVERAGES
 CPU TIME [s]                 =                       78.65               112.16
 ENERGY DRIFT PER ATOM [K]    =          0.114476299413E+00   0.234770566246E+00
 POTENTIAL ENERGY[hartree]    =         -0.484345276349E+03  -0.484145978598E+03
 TOTAL KINETIC ENERGY[hartree]=          0.404122056046E+02   0.402368245833E+02
 QM KINETIC ENERGY[hartree]   =          0.180846820557E+00   0.163957279028E+00
 TOTAL TEMPERATURE[K]         =                     301.010              299.703
 QM TEMPERATURE[K]            =                     453.229              410.901
 *******************************************************************************


 -------------------------------------------------------------------------------
 -                                                                             -
 -                                DBCSR STATISTICS                             -
 -                                                                             -
 -------------------------------------------------------------------------------
 COUNTER                                    TOTAL       BLAS       SMM       ACC
 flops     5 x    17 x    17              2034560       0.0%    100.0%      0.0%
 flops    13 x    17 x    17              4808960       0.0%    100.0%      0.0%
 flops     5 x    32 x    17              5744640       0.0%    100.0%      0.0%
 flops     5 x    17 x    32              5744640       0.0%    100.0%      0.0%
 flops    17 x    17 x    17             11083728       0.0%    100.0%      0.0%
 flops    13 x    32 x    17             13578240       0.0%    100.0%      0.0%
 flops    13 x    17 x    32             13578240       0.0%    100.0%      0.0%
 flops    87 x    17 x    17             41687094       0.0%    100.0%      0.0%
 flops    90 x    17 x    17             43124580       0.0%    100.0%      0.0%
 flops     5 x    32 x    32             43253760       0.0%    100.0%      0.0%
 flops    92 x    17 x    17             44082904       0.0%    100.0%      0.0%
 flops    17 x    17 x    23             44933720       0.0%    100.0%      0.0%
 flops    87 x    17 x    23             60210090       0.0%    100.0%      0.0%
 flops    90 x    17 x    23             62286300       0.0%    100.0%      0.0%
 flops    17 x    17 x    32             62590464       0.0%    100.0%      0.0%
 flops    17 x    32 x    17             62590464       0.0%    100.0%      0.0%
 flops    32 x    17 x    17             62590464       0.0%    100.0%      0.0%
 flops    92 x    17 x    23             63670440       0.0%    100.0%      0.0%
 flops    17 x    17 x    31             84787976       0.0%    100.0%      0.0%
 flops    93 x    17 x    17             89124132       0.0%    100.0%      0.0%
 flops    13 x    32 x    32            102236160       0.0%    100.0%      0.0%
 flops    87 x    17 x    31            113613822       0.0%    100.0%      0.0%
 flops    90 x    17 x    31            117531540       0.0%    100.0%      0.0%
 flops    92 x    17 x    31            120143352       0.0%    100.0%      0.0%
 flops    17 x    17 x    36            126595872       0.0%    100.0%      0.0%
 flops    93 x    17 x    23            128725020       0.0%    100.0%      0.0%
 flops    95 x    17 x    17            136561170       0.0%    100.0%      0.0%
 flops     5 x     5 x    17            136906950       0.0%    100.0%      0.0%
 flops    87 x    17 x    36            169635384       0.0%    100.0%      0.0%
 flops    90 x    17 x    36            175484880       0.0%    100.0%      0.0%
 flops    92 x    17 x    36            179384544       0.0%    100.0%      0.0%
 flops    95 x    17 x    23            197239950       0.0%    100.0%      0.0%
 flops    87 x    17 x    32            235409472       0.0%    100.0%      0.0%
 flops    87 x    32 x    17            235409472       0.0%    100.0%      0.0%
 flops    93 x    17 x    31            242898516       0.0%    100.0%      0.0%
 flops    90 x    17 x    32            243527040       0.0%    100.0%      0.0%
 flops    90 x    32 x    17            243527040       0.0%    100.0%      0.0%
 flops    92 x    17 x    32            248938752       0.0%    100.0%      0.0%
 flops    92 x    32 x    17            248938752       0.0%    100.0%      0.0%
 flops    32 x    17 x    23            251741440       0.0%    100.0%      0.0%
 flops    17 x    32 x    23            252742400       0.0%    100.0%      0.0%
 flops    87 x    32 x    23            340009920       0.0%    100.0%      0.0%
 flops     5 x    13 x    17            350461800       0.0%    100.0%      0.0%
 flops    13 x     5 x    17            351023140       0.0%    100.0%      0.0%
 flops    90 x    32 x    23            351734400       0.0%    100.0%      0.0%
 flops    32 x    32 x    17            353452032       0.0%    100.0%      0.0%
 flops    17 x    32 x    32            353452032       0.0%    100.0%      0.0%
 flops    32 x    17 x    32            353452032       0.0%    100.0%      0.0%
 flops    92 x    32 x    23            359550720       0.0%    100.0%      0.0%
 flops    93 x    17 x    36            362668752       0.0%    100.0%      0.0%
 flops    95 x    17 x    31            372183210       0.0%    100.0%      0.0%
 flops    32 x    17 x    31            475025152       0.0%    100.0%      0.0%
 flops    17 x    32 x    31            476913920       0.0%    100.0%      0.0%
 flops    93 x    17 x    32            503289216       0.0%    100.0%      0.0%
 flops    93 x    32 x    17            503289216       0.0%    100.0%      0.0%
 flops     5 x    17 x     5            543581800       0.0%    100.0%      0.0%
 flops    95 x    17 x    36            555702120       0.0%    100.0%      0.0%
 flops    87 x    32 x    31            641583936       0.0%    100.0%      0.0%
 flops    90 x    32 x    31            663707520       0.0%    100.0%      0.0%
 flops    92 x    32 x    31            678456576       0.0%    100.0%      0.0%
 flops    32 x    17 x    36            709254144       0.0%    100.0%      0.0%
 flops    17 x    32 x    36            712074240       0.0%    100.0%      0.0%
 flops    93 x    32 x    23            726917760       0.0%    100.0%      0.0%
 flops    95 x    32 x    17            771168960       0.0%    100.0%      0.0%
 flops    95 x    17 x    32            771168960       0.0%    100.0%      0.0%
 flops     5 x     5 x    32            773121600       0.0%    100.0%      0.0%
 flops    13 x    13 x    17            883234898       0.0%    100.0%      0.0%
 flops    87 x    32 x    36            957940992       0.0%    100.0%      0.0%
 flops    90 x    32 x    36            990973440       0.0%    100.0%      0.0%
 flops    92 x    32 x    36           1012995072       0.0%    100.0%      0.0%
 flops    95 x    32 x    23           1113825600       0.0%    100.0%      0.0%
 flops    87 x    32 x    32           1329371136       0.0%    100.0%      0.0%
 flops    93 x    32 x    31           1371662208       0.0%    100.0%      0.0%
 flops    90 x    32 x    32           1375211520       0.0%    100.0%      0.0%
 flops    92 x    32 x    32           1405771776       0.0%    100.0%      0.0%
 flops    32 x    32 x    23           1427251200       0.0%    100.0%      0.0%
 flops    13 x    17 x     5           1437034820       0.0%    100.0%      0.0%
 flops     5 x    17 x    13           1437034820       0.0%    100.0%      0.0%
 flops     5 x    13 x    32           1979078400       0.0%    100.0%      0.0%
 flops    13 x     5 x    32           1982248320       0.0%    100.0%      0.0%
 flops    32 x    32 x    32           1995964416       0.0%    100.0%      0.0%
 flops    93 x    32 x    36           2048011776       0.0%    100.0%      0.0%
 flops    95 x    32 x    31           2101740480       0.0%    100.0%      0.0%
 flops    32 x    32 x    31           2693160960       0.0%    100.0%      0.0%
 flops    93 x    32 x    32           2842103808       0.0%    100.0%      0.0%
 flops     5 x    32 x     5           3069638400       0.0%    100.0%      0.0%
 flops    95 x    32 x    36           3138082560       0.0%    100.0%      0.0%
 flops    13 x    17 x    13           3535904528       0.0%    100.0%      0.0%
 flops    32 x    32 x    36           4021125120       0.0%    100.0%      0.0%
 flops    95 x    32 x    32           4354836480       0.0%    100.0%      0.0%
 flops    13 x    13 x    32           4987679424       0.0%    100.0%      0.0%
 flops    13 x    32 x     5           8115020160       0.0%    100.0%      0.0%
 flops     5 x    32 x    13           8115020160       0.0%    100.0%      0.0%
 flops    13 x    32 x    13          19967460864       0.0%    100.0%      0.0%
 flops inhomo. stacks                  5053309632     100.0%      0.0%      0.0%
 flops total                       112.524633E+09       4.5%     95.5%      0.0%
 flops max/rank                      4.462175E+09       6.0%     94.0%      0.0%
 matmuls inhomo. stacks                     49296     100.0%      0.0%      0.0%
 matmuls total                           13336328       0.4%     99.6%      0.0%
 number of processed stacks               2345220       2.1%     97.9%      0.0%
 average stack size                                     1.0       5.8       0.0
 marketing flops                   125.465100E+09
 -------------------------------------------------------------------------------
 # multiplications                           3411
 max memory usage/rank               1.774748E+09
 # max total images/rank                        3
 # max 3D layers                                1
 # MPI messages exchanged                60251904
 MPI messages size (bytes):
  total size                       111.051915E+09
  min size                           0.000000E+00
  max size                          27.360000E+03
  average size                       1.843127E+03
 MPI breakdown and total messages size (bytes):
             size <=      128            51206832                        0
       128 < size <=     8192             4546387              28263089816
      8192 < size <=    32768             4498685              82786385472
     32768 < size <=   131072                   0                        0
    131072 < size <=  4194304                   0                        0
   4194304 < size <= 16777216                   0                        0
  16777216 < size                               0                        0
 -------------------------------------------------------------------------------

 *** WARNING in dbcsr/mm/dbcsr_mm.F:268 :: Using a non-square number of ***
 *** MPI ranks might lead to poor performance.                          ***
 *** Used ranks: 192                                                    ***
 *** Suggested: 196 400                                                 ***

 -------------------------------------------------------------------------------

 MEMORY| Estimated peak process memory [MiB]                                1693

 -------------------------------------------------------------------------------
 -                                                                             -
 -                         MESSAGE PASSING PERFORMANCE                         -
 -                                                                             -
 -------------------------------------------------------------------------------

 ROUTINE             CALLS      AVE VOLUME [Bytes]
 MP_Group              125
 MP_Bcast             6936                1672154.
 MP_Allreduce        30577                 274019.
 MP_Sync                66
 MP_Alltoall         14570                3504120.
 MP_ISendRecv       133700                  58320.
 MP_Wait            885090
 MP_comm_split          55
 MP_ISend           685320                  12540.
 MP_IRecv           683856                  12483.
 MP_Memory          256748
 -------------------------------------------------------------------------------


 -------------------------------------------------------------------------------
 -                                                                             -
 -                           R E F E R E N C E S                               -
 -                                                                             -
 -------------------------------------------------------------------------------
 
 CP2K version 6.1, the CP2K developers group (2018).
 CP2K is freely available from https://www.cp2k.org/ .

 Schuett, Ole; Messmer, Peter; Hutter, Juerg; VandeVondele, Joost. 
 Electronic Structure Calculations on Graphics Processing Units, John Wiley & Sons, Ltd, 173-190 (2016). 
 GPU-Accelerated Sparse Matrix-Matrix Multiplication for Linear Scaling Density Functional Theory.
 http://dx.doi.org/10.1002/9781118670712.ch8


 Borstnik, U; VandeVondele, J; Weber, V; Hutter, J. 
 PARALLEL COMPUTING, 40 (5-6), 47-58 (2014). 
 Sparse matrix multiplication: The distributed block-compressed sparse
 row library.
 http://dx.doi.org/10.1016/j.parco.2014.03.012


 Hutter, J; Iannuzzi, M; Schiffmann, F; VandeVondele, J. 
 WILEY INTERDISCIPLINARY REVIEWS-COMPUTATIONAL MOLECULAR SCIENCE, 4 (1), 15-25 (2014). 
 CP2K: atomistic simulations of condensed matter systems.
 http://dx.doi.org/10.1002/wcms.1159


 Laino, T; Mohamed, F; Laio, A; Parrinello, M. 
 JOURNAL OF CHEMICAL THEORY AND COMPUTATION, 1 (6), 1176-1184 (2005). 
 An efficient real space multigrid QM/MM electrostatic coupling.
 http://dx.doi.org/10.1021/ct050123f


 Krack, M. 
 THEORETICAL CHEMISTRY ACCOUNTS, 114 (1-3), 145-152 (2005). 
 Pseudopotentials for H to Kr optimized for gradient-corrected
 exchange-correlation functionals.
 http://dx.doi.org/10.1007/s00214-005-0655-y


 VandeVondele, J; Krack, M; Mohamed, F; Parrinello, M; Chassaing, T;
 Hutter, J. COMPUTER PHYSICS COMMUNICATIONS, 167 (2), 103-128 (2005). 
 QUICKSTEP: Fast and accurate density functional calculations using a
 mixed Gaussian and plane waves approach.
 http://dx.doi.org/10.1016/j.cpc.2004.12.014


 Frigo, M; Johnson, SG. 
 PROCEEDINGS OF THE IEEE, 93 (2), 216-231 (2005). 
 The design and implementation of FFTW3.
 http://dx.doi.org/10.1109/JPROC.2004.840301


 Kolafa, J. 
 JOURNAL OF COMPUTATIONAL CHEMISTRY, 25 (3), 335-342 (2004). 
 Time-reversible always stable predictor-corrector method for molecular dynamics of polarizable molecules.
 http://dx.doi.org/10.1002/jcc.10385


 VandeVondele, J; Hutter, J. 
 JOURNAL OF CHEMICAL PHYSICS, 118 (10), 4365-4369 (2003). 
 An efficient orbital transformation method for electronic structure
 calculations.
 http://dx.doi.org/10.1063/1.1543154


 Hartwigsen, C; Goedecker, S; Hutter, J. 
 PHYSICAL REVIEW B, 58 (7), 3641-3662 (1998). 
 Relativistic separable dual-space Gaussian pseudopotentials from H to Rn.
 http://dx.doi.org/10.1103/PhysRevB.58.3641


 Lippert, G; Hutter, J; Parrinello, M. 
 MOLECULAR PHYSICS, 92 (3), 477-487 (1997). 
 A hybrid Gaussian and plane wave density functional scheme.
 http://dx.doi.org/10.1080/002689797170220


 Goedecker, S; Teter, M; Hutter, J. 
 PHYSICAL REVIEW B, 54 (3), 1703-1710 (1996). 
 Separable dual-space Gaussian pseudopotentials.
 http://dx.doi.org/10.1103/PhysRevB.54.1703


 ESSMANN, U; PERERA, L; BERKOWITZ, ML; DARDEN, T; LEE, H; PEDERSEN, LG. 
 JOURNAL OF CHEMICAL PHYSICS, 103 (19), 8577-8593 (1995). 
 A SMOOTH PARTICLE MESH EWALD METHOD.
 http://dx.doi.org/10.1063/1.470117


 BECKE, AD. PHYSICAL REVIEW A, 38 (6), 3098-3100 (1988). 
 DENSITY-FUNCTIONAL EXCHANGE-ENERGY APPROXIMATION WITH CORRECT
 ASYMPTOTIC-BEHAVIOR.
 http://dx.doi.org/10.1103/PhysRevA.38.3098


 LEE, CT; YANG, WT; PARR, RG. 
 PHYSICAL REVIEW B, 37 (2), 785-789 (1988). 
 DEVELOPMENT OF THE COLLE-SALVETTI CORRELATION-ENERGY FORMULA INTO A
 FUNCTIONAL OF THE ELECTRON-DENSITY.
 http://dx.doi.org/10.1103/PhysRevB.37.785


 NOSE, S. JOURNAL OF CHEMICAL PHYSICS, 81 (1), 511-519 (1984). 
 A UNIFIED FORMULATION OF THE CONSTANT TEMPERATURE MOLECULAR-DYNAMICS
 METHODS.
 http://dx.doi.org/10.1063/1.447334


 NOSE, S. MOLECULAR PHYSICS, 52 (2), 255-268 (1984). 
 A MOLECULAR-DYNAMICS METHOD FOR SIMULATIONS IN THE CANONICAL ENSEMBLE.
 http://dx.doi.org/10.1080/00268978400101201


 -------------------------------------------------------------------------------
 -                                                                             -
 -                                T I M I N G                                  -
 -                                                                             -
 -------------------------------------------------------------------------------
 SUBROUTINE                       CALLS  ASD         SELF TIME        TOTAL TIME
                                MAXIMUM       AVERAGE  MAXIMUM  AVERAGE  MAXIMUM
 CP2K                                 1  1.0    0.959    1.066  572.881  572.895
 qs_mol_dyn_low                       1  2.0    0.004    0.006  561.009  561.462
 velocity_verlet                      5  3.0    0.009    0.010  394.749  394.760
 qs_forces                            6  3.8    0.001    0.001  297.953  297.962
 qs_energies                          6  4.8    0.000    0.001  290.002  290.011
 scf_env_do_scf                       6  5.8    0.000    0.001  285.978  285.985
 scf_env_do_scf_inner_loop          169  6.6    0.005    0.012  275.391  275.398
 rebuild_ks_matrix                  175  8.5    0.001    0.001  217.550  217.660
 qs_ks_build_kohn_sham_matrix       175  9.5    0.029    0.034  217.550  217.659
 qs_ks_update_qs_env                177  7.6    0.001    0.002  209.687  209.794
 pw_transfer                       3391 12.0    0.245    0.374  195.858  200.064
 fft_wrap_pw1pw2                   3011 13.2    0.037    0.052  193.892  198.116
 fft_wrap_pw1pw2_150               1937 14.3   12.244   12.820  187.858  192.209
 fft3d_ps                          3011 15.2   63.720   74.538  157.716  162.703
 qs_vxc_create                      175 10.5    0.004    0.007  140.061  140.117
 xc_vxc_pw_create                   175 11.5    1.465    1.845  140.057  140.111
 qmmm_forces                          6  3.8    0.026    0.029  139.027  139.031
 qmmm_forces_with_gaussian            6  4.8    0.069    0.093  136.475  138.064
 qmmm_el_coupling                     6  3.8    0.000    0.000  120.964  122.538
 qmmm_elec_with_gaussian              6  4.8    0.034    0.053  120.953  122.524
 pw_restrict_s3                      18  5.8   93.732   96.444  119.825  121.487
 qmmm_elec_with_gaussian:spline       6  5.8    0.000    0.000  101.732  103.307
 pw_prolongate_s3                    18  6.8   78.693   80.933  101.732  103.307
 mp_alltoall_z22v                  3011 17.2   77.627   81.875   77.627   81.875
 qs_rho_update_rho                  175  7.6    0.001    0.001   66.629   66.643
 calculate_rho_elec                 175  8.6    0.947    7.303   66.628   66.642
 xc_rho_set_and_dset_create         175 12.5    1.748    2.487   59.764   64.900
 density_rs2pw                      175  9.6    0.014    0.018   61.183   63.002
 sum_up_and_integrate               175 10.5    0.410    0.535   50.883   50.957
 integrate_v_rspace                 175 11.5    0.572    5.815   50.473   50.584
 x_to_yz                           1599 16.6   10.526   13.810   48.873   50.071
 rs_pw_transfer                    1436 11.9    0.020    0.028   47.754   48.929
 yz_to_x                           1412 15.6    5.771    6.538   45.051   48.752
 potential_pw2rs                    175 12.5    0.026    0.033   43.813   44.126
 mp_sum_dm3                          30  5.8   23.504   23.567   23.504   23.567
 pw_zero                           2209  7.5   19.622   20.752   19.622   20.752
 pw_axpy                           2612  9.4   18.707   19.765   18.707   19.765
 mp_waitany                       39240 13.9   14.332   17.871   14.332   17.871
 mp_waitall_1                    846132 15.5   14.716   17.062   14.716   17.062
 pw_scatter_p                      1599 15.6   14.058   15.068   14.058   15.068
 rs_pw_transfer_RS2PW_150           181 11.6    6.482    7.652   12.792   14.755
 rs_pw_transfer_PW2RS_150           181 14.3    5.791    6.690   12.771   13.972
 qs_scf_new_mos                     169  7.6    0.001    0.001   11.422   11.552
 qs_scf_loop_do_ot                  169  8.6    0.001    0.001   11.421   11.551
 -------------------------------------------------------------------------------

 The number of warnings for this run is : 1
 
 -------------------------------------------------------------------------------
  **** **** ******  **  PROGRAM ENDED AT                 2019-02-28 10:45:11.880
 ***** ** ***  *** **   PROGRAM RAN ON                                  nid01793
 **    ****   ******    PROGRAM RAN BY                                  fionabio
 ***** **    ** ** **   PROGRAM PROCESS ID                                 42727
  **** **  *******  **  PROGRAM STOPPED IN /fs3/d118/d118/fionabio/BioExcel2/cp2
                                           k_benchmarks/QMMM/QM_test/LSD_test/te
                                           st-4
Application 33711956 resources: utime ~102499s, stime ~7815s, Rss ~1812892, inblocks ~2836967, outblocks ~4621138
