CrayPat/X:  Version 6.4.6 Revision 7d0d87c  02/20/17 09:52:37
 *******************************************************************************
 *                            RESTART INFORMATION                              *
 *******************************************************************************
 *                                                                             *
 *    RESTART FILE NAME: NPT-1.restart                                         *
 *                                                                             *
 * RESTARTED QUANTITIES:                                                       *
 *                       CELL                                                  *
 *                       COORDINATES                                           *
 *                       RANDOM NUMBER GENERATOR                               *
 *                       VELOCITIES                                            *
 *                       MD AVERAGES                                           *
 *                       REAL TIME PROPAGATION                                 *
 *                       PINT BEAD POSITIONS                                   *
 *                       PINT BEAD VELOCITIES                                  *
 *                       PINT NOSE THERMOSTAT                                  *
 *                       PINT GLE THERMOSTAT                                   *
 *                       HELIUM BEAD POSITIONS                                 *
 *                       HELIUM PERMUTATION STATE                              *
 *                       HELIUM FORCES ON SOLUTE                               *
 *                       HELIUM RNG STATE                                      *
 *******************************************************************************

 DBCSR| Multiplication driver                                               XSMM
 DBCSR| Multrec recursion limit                                              512
 DBCSR| Multiplication stack size                                           1000
 DBCSR| Maximum elements for images                                    UNLIMITED
 DBCSR| Multiplicative factor virtual images                                   1
 DBCSR| Multiplication size stacks                                             3
 DBCSR| Number of 3D layers                                               SINGLE
 DBCSR| Use MPI memory allocation                                              T
 DBCSR| Use RMA algorithm                                                      F
 DBCSR| Use Communication thread                                               T
 DBCSR| Communication thread load                                             87


  **** **** ******  **  PROGRAM STARTED AT               2019-03-15 16:14:04.693
 ***** ** ***  *** **   PROGRAM STARTED ON                              nid04002
 **    ****   ******    PROGRAM STARTED BY                              fionabio
 ***** **    ** ** **   PROGRAM PROCESS ID                                 13492
  **** **  *******  **  PROGRAM STARTED IN /fs3/d118/d118/fionabio/BioExcel2/cp2
                                           k_benchmarks/QMMM/QM/2_nodes/test-4

 CP2K| version string:                                          CP2K version 6.1
 CP2K| source code revision number:                                    svn:18464
 CP2K| cp2kflags: omp libint fftw3 libxc elpa=201605 elpa_qr parallel mpi3 scala
 CP2K|            pack xsmm libgrid has_no_shared_glibc max_contr=4 statm_resident plumed2
 CP2K| is freely available from                            https://www.cp2k.org/
 CP2K| Program compiled at                          Fri Feb 15 14:30:53 GMT 2019
 CP2K| Program compiled on                                            eslogin007
 CP2K| Program compiled for                                       ARCHER_craypat
 CP2K| Data directory path                     /work/y07/y07/cp2k/6.1.18464/data
 CP2K| Input file name                                     fr_qmmm-4_40steps.inp

 GLOBAL| Force Environment number                                              1
 GLOBAL| Basis set file name                                           BASIS_SET
 GLOBAL| Potential file name                                           POTENTIAL
 GLOBAL| MM Potential file name                                     MM_POTENTIAL
 GLOBAL| Coordinate file name                                      __STD_INPUT__
 GLOBAL| Method name                                                        CP2K
 GLOBAL| Project name                                                     QMMM-4
 GLOBAL| Preferred FFT library                                             FFTW3
 GLOBAL| Preferred diagonalization lib.                                       SL
 GLOBAL| Run type                                                             MD
 GLOBAL| All-to-all communication in single precision                          F
 GLOBAL| FFTs using library dependent lengths                                  F
 GLOBAL| Global print level                                                  LOW
 GLOBAL| Total number of message passing processes                            48
 GLOBAL| Number of threads for this process                                    1
 GLOBAL| This output is from process                                           0
 GLOBAL| CPU model name :  Intel(R) Xeon(R) CPU E5-2697 v2 @ 2.70GHz

 MEMORY| system memory details [Kb]
 MEMORY|                        rank 0           min           max       average
 MEMORY| MemTotal             66072152      66072152      66072152      66072152
 MEMORY| MemFree              60830252      60830252      60836548      60833400
 MEMORY| Buffers                     0             0             0             0
 MEMORY| Cached                 284484        280044        284484        282264
 MEMORY| Slab                   272396        272032        272396        272214
 MEMORY| SReclaimable             8616          8576          8616          8596
 MEMORY| MemLikelyFree        61123352      61123352      61125168      61124260



                      ************* ******** ***********   
                     ************* **********************  
                     ****     **** ****      ***********   
                     ******** ****  *******     ****       
                     *******  ****   *******   ****        
                     ****     ****       ****  ****        
                     ****     **** **********  ****        
                      ****     **** ********    ****       
                     FRONTIERS IN SIMULATION TECHNOLOGY    
                                                           
                        C.J. Mundy, S. Balasubramanian,    
                     Ken Bagchi, J. Hutter, Ari Seitsonen  
                      IFW Kuo, T. Laino, J. VandeVondele   
                                 Version 1.0               

                                                           


 EWALD| Summation is done by:                                               SPME
 EWALD| Alpha parameter [       ANGSTROM^-1]                              0.4000
 EWALD| Real Space Cutoff [          ANGSTROM]                            8.4348
 EWALD| G-space max. Miller index                         80        80        80
 EWALD| Spline interpolation order                                             6

 FORCEFIELD| WARNING: A non Critical ForceField parameter is missing! CP2K GOES!
 FORCEFIELD| Non critical parameters are:Urey-Bradley,Torsions,Impropers, Opbends and 1-4
 FORCEFIELD| All missing parameters will not contribute to the potential energy!
 FORCEFIELD| Activate the print key FF_INFO to have a list of missing parameters

 CHARGE_INFO| Total Charge of the Classical System:                    -0.000000

 SPLINE_INFO| Generating 73920 splines for NONBONDED14 interactions 
              Due to 384 different atomic kinds
  ...7392  ...14784  ...22176  ...29568  ...36960  ...44352  ...51744  ...59136  ...66528  ...73920
 SPLINE_INFO| Number of unique splines computed:            137
 SPLINE_INFO| Done

 SPLINE_INFO| Generating 73920 splines for NONBONDED interactions 
              Due to 384 different atomic kinds
  ...7392  ...14784  ...22176  ...29568  ...36960  ...44352  ...51744  ...59136  ...66528  ...73920
 SPLINE_INFO| Number of unique splines computed:            137
 SPLINE_INFO| Done

 *******************************************************************************
 *******************************************************************************
 **                                                                           **
 **     #####                         ##              ##                      **
 **    ##   ##            ##          ##              ##                      **
 **   ##     ##                       ##            ######                    **
 **   ##     ##  ##   ##  ##   #####  ##  ##   ####   ##    #####    #####    **
 **   ##     ##  ##   ##  ##  ##      ## ##   ##      ##   ##   ##  ##   ##   **
 **   ##  ## ##  ##   ##  ##  ##      ####     ###    ##   ######   ######    **
 **    ##  ###   ##   ##  ##  ##      ## ##      ##   ##   ##       ##        **
 **     #######   #####   ##   #####  ##  ##  ####    ##    #####   ##        **
 **           ##                                                    ##        **
 **                                                                           **
 **                                                ... make the atoms dance   **
 **                                                                           **
 **            Copyright (C) by CP2K developers group (2000 - 2018)           **
 **                                                                           **
 *******************************************************************************


 TOTAL NUMBERS AND MAXIMUM NUMBERS

  Total number of            - Atomic kinds:                                   5
                             - Atoms:                                         84
                             - Shell sets:                                   168
                             - Shells:                                       332
                             - Primitive Cartesian functions:                420
                             - Cartesian basis functions:                    780
                             - Spherical basis functions:                    740

  Maximum angular momentum of- Orbital basis functions:                        2
                             - Local part of the GTH pseudopotential:          2
                             - Non-local part of the GTH pseudopotential:      0


 SCF PARAMETERS         Density guess:                                    ATOMIC
                        --------------------------------------------------------
                        max_scf:                                              30
                        max_scf_history:                                       0
                        max_diis:                                              4
                        --------------------------------------------------------
                        eps_scf:                                        1.00E-06
                        eps_scf_history:                                0.00E+00
                        eps_diis:                                       1.00E-01
                        eps_eigval:                                     1.00E-05
                        --------------------------------------------------------
                        level_shift [a.u.]:                                 0.00
                        --------------------------------------------------------
                        Outer loop SCF in use 
                        No variables optimised in outer loop
                        eps_scf                                         1.00E-06
                        max_scf                                               10
                        No outer loop optimization
                        step_size                                       5.00E-01

 *******************************************************************************
 *******************************************************************************
 **                                                                           **
 **             #######  ##     ## ##     ## ##     ##                        **
 **            ##     ## ###   ### ###   ### ###   ###                        **
 **            ##     ## #### #### #### #### #### ####                        **
 **            ##     ## ## ### ## ## ### ## ## ### ##                        **
 **            ##  ## ## ##     ## ##     ## ##     ##                        **
 **            ##    ##  ##     ## ##     ## ##     ##  T.Laino and F.Mohamed **
 **             ##### ## ##     ## ##     ## ##     ##  2005 - 2015           **
 **                                                                           **
 **                                                     Calculation Started.. **
 *******************************************************************************
 *******************************************************************************

 MD| Molecular Dynamics Protocol 
 MD| Ensemble Type                                                           NVT
 MD| Number of Time Steps                                                     40
 MD| Time Step [fs]                                                         1.00
 MD| Temperature [K]                                                      298.00
 MD| Temperature tolerance [K]                                              0.00
 MD| Print MD information every                                        1 step(s)
 MD| File type     Print frequency[steps]                             File names
 MD| Coordinates          100                                   QMMM-4-pos-1.xyz
 MD| Velocities             1                                   QMMM-4-vel-1.xyz
 MD| Energies               1                                      QMMM-4-1.ener
 MD| Dump                1000                                   QMMM-4-1.restart

 ROT| Rotational Analysis Info 
 ROT| Principal axes and moments of inertia in atomic units:
 ROT|                                1                 2                 3
 ROT| EIGENVALUES            0.684222771E+12   0.824984710E+12   0.857051527E+12
 ROT|      X                     0.994031516       0.079445441       0.074764740
 ROT|      Y                     0.053274698      -0.951557830       0.302819259
 ROT|      Z                    -0.095200583       0.297028818       0.950110904
 ROT| Numer of Rotovibrational vectors:     6

 Calculation of degrees of freedom
                                                      Number of atoms:     28264
                                 Number of Intramolecular constraints:         0
                                 Number of Intermolecular constraints:         0
                                  Invariants(translation + rotations):         3
                                                   Degrees of freedom:     84789


 Restraints Information
                                  Number of Intramolecular restraints:         0
                                  Number of Intermolecular restraints:         0

 THERMOSTAT| Thermostat Info for PARTICLES
 THERMOSTAT| Type of thermostat                               Nose-Hoover-Chains
 THERMOSTAT| Nose-Hoover-Chain length                                          3
 THERMOSTAT| Nose-Hoover-Chain time constant [  fs]                       100.00
 THERMOSTAT| Order of Yoshida integrator                                       3
 THERMOSTAT| Number of multiple time steps                                     2
 THERMOSTAT| Initial Potential Energy                                   0.000000
 THERMOSTAT| Initial Kinetic Energy                                     0.000472
 THERMOSTAT| End of Thermostat Info for PARTICLES

 ************************** Velocities initialization **************************
 Initial Temperature                                                    299.25 K
 COM velocity:            0.000000000000      0.000000000000     -0.000000000000
 *******************************************************************************


  Translating the system in order to center the QM fragment in the QM box.

 Number of electrons:                                                        226
 Number of occupied orbitals:                                                113
 Number of molecular orbitals:                                               113

 Number of orbital functions:                                                740
 Number of independent orbital functions:                                    740

 Extrapolation method: initial_guess


 SCF WAVEFUNCTION OPTIMIZATION

  ----------------------------------- OT ---------------------------------------
  Minimizer      : DIIS                : direct inversion
                                         in the iterative subspace
                                         using   7 DIIS vectors
                                         safer DIIS on
  Preconditioner : FULL_SINGLE_INVERSE : inversion of 
                                         H + eS - 2*(Sc)(c^T*H*c+const)(Sc)^T
  Precond_solver : DEFAULT
  stepsize       :    0.08000000                  energy_gap     :    0.08000000
  eps_taylor     :   0.10000E-15                  max_taylor     :             4
  ----------------------------------- OT ---------------------------------------

  Step     Update method      Time    Convergence         Total energy    Change
  ------------------------------------------------------------------------------
     1 OT DIIS     0.80E-01    4.3     0.04454133      -340.5044127798 -3.41E+02
     2 OT DIIS     0.80E-01    5.1     0.03253703      -350.1541982484 -9.65E+00
     3 OT DIIS     0.80E-01    5.1     0.02526910      -354.8758512782 -4.72E+00
     4 OT DIIS     0.80E-01    5.1     0.01631343      -358.5168689024 -3.64E+00
     5 OT DIIS     0.80E-01    5.1     0.01031922      -360.3600141063 -1.84E+00
     6 OT DIIS     0.80E-01    5.1     0.00646079      -361.2377965514 -8.78E-01
     7 OT DIIS     0.80E-01    5.1     0.00453826      -361.6017737581 -3.64E-01
     8 OT DIIS     0.80E-01    5.1     0.00335924      -361.7862669579 -1.84E-01
     9 OT DIIS     0.80E-01    5.1     0.00255440      -361.9061151295 -1.20E-01
    10 OT DIIS     0.80E-01    5.1     0.00204694      -361.9845087581 -7.84E-02
    11 OT DIIS     0.80E-01    5.1     0.00169610      -362.0415992379 -5.71E-02
    12 OT DIIS     0.80E-01    5.1     0.00139332      -362.0921093908 -5.05E-02
    13 OT DIIS     0.80E-01    5.1     0.00122575      -362.1269774146 -3.49E-02
    14 OT DIIS     0.80E-01    5.1     0.00109549      -362.1517041374 -2.47E-02
    15 OT DIIS     0.80E-01    5.1     0.00099625      -362.1761005881 -2.44E-02
    16 OT DIIS     0.80E-01    5.1     0.00092430      -362.1939779130 -1.79E-02
    17 OT DIIS     0.80E-01    5.1     0.00086613      -362.2096157799 -1.56E-02
    18 OT DIIS     0.80E-01    5.1     0.00081174      -362.2250309076 -1.54E-02
    19 OT DIIS     0.80E-01    5.1     0.00075700      -362.2372465826 -1.22E-02
    20 OT DIIS     0.80E-01    5.1     0.00070592      -362.2493786371 -1.21E-02
    21 OT DIIS     0.80E-01    5.1     0.00064643      -362.2616452182 -1.23E-02
    22 OT DIIS     0.80E-01    5.1     0.00059807      -362.2707657083 -9.12E-03
    23 OT DIIS     0.80E-01    5.1     0.00053210      -362.2821787112 -1.14E-02
    24 OT DIIS     0.80E-01    5.1     0.00048857      -362.2880795773 -5.90E-03
    25 OT DIIS     0.80E-01    5.1     0.00046247      -362.2972941009 -9.21E-03
    26 OT DIIS     0.80E-01    5.1     0.00040775      -362.2982534274 -9.59E-04
    27 OT DIIS     0.80E-01    5.1     0.00040321      -362.3057790841 -7.53E-03
    28 OT DIIS     0.80E-01    5.1     0.00033618      -362.3092668944 -3.49E-03
    29 OT DIIS     0.80E-01    5.1     0.00029831      -362.3130670463 -3.80E-03
    30 OT DIIS     0.80E-01    5.1     0.00027594      -362.3157781677 -2.71E-03

  Leaving inner SCF loop after reaching    30 steps.


  Electronic density on regular grids:       -226.0000000085       -0.0000000085
  Core density on regular grids:              225.9999999871       -0.0000000129
  Total charge density on r-space grids:       -0.0000000214
  Total charge density g-space grids:          -0.0000000214

  Overlap energy of the core charge distribution:               0.00001341131030
  Self energy of the core charge distribution:               -887.32449380202411
  Core Hamiltonian energy:                                    270.84293450839573
  Hartree energy:                                             361.08269464940724
  Exchange-correlation energy:                               -103.32766459253827
  QM/MM Electrostatic energy:                                  -3.58926234221888

  Total energy:                                              -362.31577816766799

  outer SCF iter =    1 RMS gradient =   0.28E-03 energy =       -362.3157781677

  ----------------------------------- OT ---------------------------------------
  Minimizer      : DIIS                : direct inversion
                                         in the iterative subspace
                                         using   7 DIIS vectors
                                         safer DIIS on
  Preconditioner : FULL_SINGLE_INVERSE : inversion of 
                                         H + eS - 2*(Sc)(c^T*H*c+const)(Sc)^T
  Precond_solver : DEFAULT
  stepsize       :    0.08000000                  energy_gap     :    0.08000000
  eps_taylor     :   0.10000E-15                  max_taylor     :             4
  ----------------------------------- OT ---------------------------------------

  Step     Update method      Time    Convergence         Total energy    Change
  ------------------------------------------------------------------------------
     1 OT DIIS     0.80E-01   10.3     0.00113161      -362.3186709492 -2.89E-03
     2 OT DIIS     0.80E-01    5.1     0.00082763      -362.3252161773 -6.55E-03
     3 OT DIIS     0.80E-01    5.1     0.00075185      -362.3288556514 -3.64E-03
     4 OT DIIS     0.80E-01    5.1     0.00061983      -362.3325810378 -3.73E-03
     5 OT DIIS     0.80E-01    5.1     0.00046969      -362.3352903648 -2.71E-03
     6 OT DIIS     0.80E-01    5.1     0.00037418      -362.3366120451 -1.32E-03
     7 OT DIIS     0.80E-01    5.1     0.00031279      -362.3376989901 -1.09E-03
     8 OT DIIS     0.80E-01    5.1     0.00018408      -362.3381787147 -4.80E-04
     9 OT DIIS     0.80E-01    5.1     0.00012550      -362.3383137502 -1.35E-04
    10 OT DIIS     0.80E-01    5.1     0.00010064      -362.3383941174 -8.04E-05
    11 OT DIIS     0.80E-01    5.1     0.00008245      -362.3384524762 -5.84E-05
    12 OT DIIS     0.80E-01    5.1     0.00007103      -362.3385245543 -7.21E-05
    13 OT DIIS     0.80E-01    5.1     0.00006496      -362.3385752472 -5.07E-05
    14 OT DIIS     0.80E-01    5.1     0.00005863      -362.3386195693 -4.43E-05
    15 OT DIIS     0.80E-01    5.1     0.00005166      -362.3386559737 -3.64E-05
    16 OT DIIS     0.80E-01    5.1     0.00004641      -362.3386987418 -4.28E-05
    17 OT DIIS     0.80E-01    5.1     0.00004178      -362.3387203124 -2.16E-05
    18 OT DIIS     0.80E-01    5.1     0.00003593      -362.3387460163 -2.57E-05
    19 OT DIIS     0.80E-01    5.1     0.00003069      -362.3387620308 -1.60E-05
    20 OT DIIS     0.80E-01    5.1     0.00002664      -362.3387749626 -1.29E-05
    21 OT DIIS     0.80E-01    5.1     0.00002282      -362.3387846094 -9.65E-06
    22 OT DIIS     0.80E-01    5.1     0.00002128      -362.3387900621 -5.45E-06
    23 OT DIIS     0.80E-01    5.1     0.00001737      -362.3387927167 -2.65E-06
    24 OT DIIS     0.80E-01    5.1     0.00001378      -362.3387943853 -1.67E-06
    25 OT DIIS     0.80E-01    5.1     0.00001195      -362.3387950271 -6.42E-07
    26 OT DIIS     0.80E-01    5.1     0.00001001      -362.3387955028 -4.76E-07
    27 OT DIIS     0.80E-01    5.1     0.00000832      -362.3387957789 -2.76E-07
    28 OT DIIS     0.80E-01    5.1     0.00000714      -362.3387959616 -1.83E-07
    29 OT DIIS     0.80E-01    5.1     0.00000613      -362.3387960559 -9.43E-08
    30 OT DIIS     0.80E-01    5.1     0.00000562      -362.3387961240 -6.81E-08

  Leaving inner SCF loop after reaching    30 steps.


  Electronic density on regular grids:       -226.0000000086       -0.0000000086
  Core density on regular grids:              225.9999999871       -0.0000000129
  Total charge density on r-space grids:       -0.0000000215
  Total charge density g-space grids:          -0.0000000215

  Overlap energy of the core charge distribution:               0.00001341131030
  Self energy of the core charge distribution:               -887.32449380202411
  Core Hamiltonian energy:                                    270.81389644774242
  Hartree energy:                                             361.09425367938002
  Exchange-correlation energy:                               -103.33245346871418
  QM/MM Electrostatic energy:                                  -3.59001239171137

  Total energy:                                              -362.33879612401688

  outer SCF iter =    2 RMS gradient =   0.56E-05 energy =       -362.3387961240

  ----------------------------------- OT ---------------------------------------
  Minimizer      : DIIS                : direct inversion
                                         in the iterative subspace
                                         using   7 DIIS vectors
                                         safer DIIS on
  Preconditioner : FULL_SINGLE_INVERSE : inversion of 
                                         H + eS - 2*(Sc)(c^T*H*c+const)(Sc)^T
  Precond_solver : DEFAULT
  stepsize       :    0.08000000                  energy_gap     :    0.08000000
  eps_taylor     :   0.10000E-15                  max_taylor     :             4
  ----------------------------------- OT ---------------------------------------

  Step     Update method      Time    Convergence         Total energy    Change
  ------------------------------------------------------------------------------
     1 OT DIIS     0.80E-01   10.2     0.00000520      -362.3387962027 -7.87E-08
     2 OT DIIS     0.80E-01    5.1     0.00000746      -362.3387963011 -9.83E-08
     3 OT DIIS     0.80E-01    5.1     0.00000406      -362.3387963738 -7.27E-08
     4 OT DIIS     0.80E-01    5.1     0.00000414      -362.3387965760 -2.02E-07
     5 OT DIIS     0.80E-01    5.1     0.00000296      -362.3387969439 -3.68E-07
     6 OT DIIS     0.80E-01    5.1     0.00000163      -362.3387969913 -4.74E-08
     7 OT DIIS     0.80E-01    5.1     0.00000150      -362.3387970132 -2.19E-08
     8 OT DIIS     0.80E-01    5.1     0.00000107      -362.3387970670 -5.38E-08
     9 OT DIIS     0.80E-01    5.1     0.00000114      -362.3387970710 -3.94E-09
    10 OT DIIS     0.80E-01    5.1     0.00000068      -362.3387970894 -1.84E-08

  *** SCF run converged in    10 steps ***


  Electronic density on regular grids:       -226.0000000086       -0.0000000086
  Core density on regular grids:              225.9999999871       -0.0000000129
  Total charge density on r-space grids:       -0.0000000215
  Total charge density g-space grids:          -0.0000000215

  Overlap energy of the core charge distribution:               0.00001341131030
  Self energy of the core charge distribution:               -887.32449380202411
  Core Hamiltonian energy:                                    270.81384057071602
  Hartree energy:                                             361.09438979512163
  Exchange-correlation energy:                               -103.33250598398114
  QM/MM Electrostatic energy:                                  -3.59004108050438

  Total energy:                                              -362.33879708936166

  outer SCF iter =    3 RMS gradient =   0.68E-06 energy =       -362.3387970894
  outer SCF loop converged in   3 iterations or   70 steps


 ENERGY| Total FORCE_EVAL ( QMMM ) energy (a.u.):           -484.105023655389914


 MD_ENERGIES| Initialization proceeding


 ******************************** GO CP2K GO! **********************************
 INITIAL POTENTIAL ENERGY[hartree]     =                     -0.484105023655E+03
 TOTAL INITIAL KINETIC ENERGY[hartree] =                      0.401759497934E+02
 QM INITIAL KINETIC ENERGY[hartree]    =                      0.140499333878E+00
 TOTAL INITIAL TEMPERATURE[K]          =                                 299.250
 QM INITIAL TEMPERATURE[K]             =                                 352.112
 INITIAL VOLUME[bohr^3]                =                      0.200731366996E+07
 INITIAL CELL LNTHS[bohr]   =      0.1406963E+03   0.1233340E+03   0.1156777E+03
 INITIAL CELL ANGLS[deg]    =      0.9000000E+02   0.9000000E+02   0.9000000E+02
 ******************************** GO CP2K GO! **********************************

  Translating the system in order to center the QM fragment in the QM box.

 Number of electrons:                                                        226
 Number of occupied orbitals:                                                113
 Number of molecular orbitals:                                               113

 Number of orbital functions:                                                740
 Number of independent orbital functions:                                    740

 Extrapolation method: ASPC


 SCF WAVEFUNCTION OPTIMIZATION

  ----------------------------------- OT ---------------------------------------
  Minimizer      : DIIS                : direct inversion
                                         in the iterative subspace
                                         using   7 DIIS vectors
                                         safer DIIS on
  Preconditioner : FULL_SINGLE_INVERSE : inversion of 
                                         H + eS - 2*(Sc)(c^T*H*c+const)(Sc)^T
  Precond_solver : DEFAULT
  stepsize       :    0.08000000                  energy_gap     :    0.08000000
  eps_taylor     :   0.10000E-15                  max_taylor     :             4
  ----------------------------------- OT ---------------------------------------

  Step     Update method      Time    Convergence         Total energy    Change
  ------------------------------------------------------------------------------
     1 OT DIIS     0.80E-01    4.1     0.00091456      -362.6313447506 -3.63E+02
     2 OT DIIS     0.80E-01    5.1     0.00051172      -362.6350006076 -3.66E-03
     3 OT DIIS     0.80E-01    5.1     0.00040620      -362.6359805211 -9.80E-04
     4 OT DIIS     0.80E-01    5.1     0.00030391      -362.6364787370 -4.98E-04
     5 OT DIIS     0.80E-01    5.1     0.00014925      -362.6366334336 -1.55E-04
     6 OT DIIS     0.80E-01    5.1     0.00006958      -362.6366818310 -4.84E-05
     7 OT DIIS     0.80E-01    5.1     0.00003906      -362.6366958603 -1.40E-05
     8 OT DIIS     0.80E-01    5.1     0.00002705      -362.6366995737 -3.71E-06
     9 OT DIIS     0.80E-01    5.1     0.00001833      -362.6367006668 -1.09E-06
    10 OT DIIS     0.80E-01    5.1     0.00000934      -362.6367011708 -5.04E-07
    11 OT DIIS     0.80E-01    5.1     0.00000514      -362.6367013719 -2.01E-07
    12 OT DIIS     0.80E-01    5.1     0.00000385      -362.6367014538 -8.19E-08
    13 OT DIIS     0.80E-01    5.1     0.00000336      -362.6367014877 -3.40E-08
    14 OT DIIS     0.80E-01    5.1     0.00000216      -362.6367015137 -2.59E-08
    15 OT DIIS     0.80E-01    5.1     0.00000171      -362.6367015339 -2.03E-08
    16 OT DIIS     0.80E-01    5.1     0.00000152      -362.6367015497 -1.58E-08
    17 OT DIIS     0.80E-01    5.1     0.00000147      -362.6367015662 -1.65E-08
    18 OT DIIS     0.80E-01    5.1     0.00000126      -362.6367015866 -2.04E-08
    19 OT DIIS     0.80E-01    5.1     0.00000109      -362.6367016002 -1.36E-08
    20 OT DIIS     0.80E-01    5.1     0.00000091      -362.6367016147 -1.45E-08

  *** SCF run converged in    20 steps ***


  Electronic density on regular grids:       -226.0000000094       -0.0000000094
  Core density on regular grids:              225.9999999870       -0.0000000130
  Total charge density on r-space grids:       -0.0000000224
  Total charge density g-space grids:          -0.0000000225

  Overlap energy of the core charge distribution:               0.00001164886551
  Self energy of the core charge distribution:               -887.32449380202411
  Core Hamiltonian energy:                                    270.66703570010651
  Hartree energy:                                             361.19260631877967
  Exchange-correlation energy:                               -103.29414933200150
  QM/MM Electrostatic energy:                                  -3.87771214841085

  Total energy:                                              -362.63670161468468

  outer SCF iter =    1 RMS gradient =   0.91E-06 energy =       -362.6367016147
  outer SCF loop converged in   1 iterations or   20 steps


 ENERGY| Total FORCE_EVAL ( QMMM ) energy (a.u.):           -484.052369545168688


 *******************************************************************************
 ENSEMBLE TYPE                =                                              NVT
 STEP NUMBER                  =                                                1
 TIME [fs]                    =                                         1.000000
 CONSERVED QUANTITY [hartree] =                              -0.443891748113E+03

                                              INSTANTANEOUS             AVERAGES
 CPU TIME [s]                 =                      563.38               563.38
 ENERGY DRIFT PER ATOM [K]    =          0.411743748533E+00   0.000000000000E+00
 POTENTIAL ENERGY[hartree]    =         -0.484052369545E+03  -0.484052369545E+03
 TOTAL KINETIC ENERGY[hartree]=          0.401573743634E+02   0.401573743634E+02
 QM KINETIC ENERGY[hartree]   =          0.148830851584E+00   0.148830851584E+00
 TOTAL TEMPERATURE[K]         =                     299.111              299.111
 QM TEMPERATURE[K]            =                     372.992              372.992
 *******************************************************************************


  Translating the system in order to center the QM fragment in the QM box.

 Number of electrons:                                                        226
 Number of occupied orbitals:                                                113
 Number of molecular orbitals:                                               113

 Number of orbital functions:                                                740
 Number of independent orbital functions:                                    740

 Extrapolation method: ASPC


 SCF WAVEFUNCTION OPTIMIZATION

  ----------------------------------- OT ---------------------------------------
  Minimizer      : DIIS                : direct inversion
                                         in the iterative subspace
                                         using   7 DIIS vectors
                                         safer DIIS on
  Preconditioner : FULL_SINGLE_INVERSE : inversion of 
                                         H + eS - 2*(Sc)(c^T*H*c+const)(Sc)^T
  Precond_solver : DEFAULT
  stepsize       :    0.08000000                  energy_gap     :    0.08000000
  eps_taylor     :   0.10000E-15                  max_taylor     :             4
  ----------------------------------- OT ---------------------------------------

  Step     Update method      Time    Convergence         Total energy    Change
  ------------------------------------------------------------------------------
     1 OT DIIS     0.80E-01    4.1     0.00038283      -362.4804980928 -3.62E+02
     2 OT DIIS     0.80E-01    5.1     0.00023460      -362.4810573808 -5.59E-04
     3 OT DIIS     0.80E-01    5.1     0.00016103      -362.4812004002 -1.43E-04
     4 OT DIIS     0.80E-01    5.1     0.00009552      -362.4812924905 -9.21E-05
     5 OT DIIS     0.80E-01    5.1     0.00007315      -362.4813125386 -2.00E-05
     6 OT DIIS     0.80E-01    5.1     0.00003713      -362.4813213662 -8.83E-06
     7 OT DIIS     0.80E-01    5.1     0.00001980      -362.4813249686 -3.60E-06
     8 OT DIIS     0.80E-01    5.1     0.00001442      -362.4813261957 -1.23E-06
     9 OT DIIS     0.80E-01    5.1     0.00001053      -362.4813268532 -6.57E-07
    10 OT DIIS     0.80E-01    5.1     0.00000812      -362.4813272782 -4.25E-07
    11 OT DIIS     0.80E-01    5.1     0.00000706      -362.4813276984 -4.20E-07
    12 OT DIIS     0.80E-01    5.1     0.00000619      -362.4813281510 -4.53E-07
    13 OT DIIS     0.80E-01    5.1     0.00000607      -362.4813286151 -4.64E-07
    14 OT DIIS     0.80E-01    5.1     0.00000569      -362.4813289319 -3.17E-07
    15 OT DIIS     0.80E-01    5.1     0.00000419      -362.4813292661 -3.34E-07
    16 OT DIIS     0.80E-01    5.1     0.00000341      -362.4813295026 -2.37E-07
    17 OT DIIS     0.80E-01    5.1     0.00000269      -362.4813296245 -1.22E-07
    18 OT DIIS     0.80E-01    5.1     0.00000192      -362.4813296680 -4.35E-08
    19 OT DIIS     0.80E-01    5.1     0.00000141      -362.4813296872 -1.92E-08
    20 OT DIIS     0.80E-01    5.1     0.00000091      -362.4813296936 -6.38E-09

  *** SCF run converged in    20 steps ***


  Electronic density on regular grids:       -226.0000000000        0.0000000000
  Core density on regular grids:              225.9999999871       -0.0000000129
  Total charge density on r-space grids:       -0.0000000129
  Total charge density g-space grids:          -0.0000000129

  Overlap energy of the core charge distribution:               0.00001125545680
  Self energy of the core charge distribution:               -887.32449380202411
  Core Hamiltonian energy:                                    270.48766980811286
  Hartree energy:                                             361.31929248052825
  Exchange-correlation energy:                               -103.24785221395811
  QM/MM Electrostatic energy:                                  -3.71595722166874

  Total energy:                                              -362.48132969355311

  outer SCF iter =    1 RMS gradient =   0.91E-06 energy =       -362.4813296936
  outer SCF loop converged in   1 iterations or   20 steps


 ENERGY| Total FORCE_EVAL ( QMMM ) energy (a.u.):           -484.064784175551665


 *******************************************************************************
 ENSEMBLE TYPE                =                                              NVT
 STEP NUMBER                  =                                                2
 TIME [fs]                    =                                         2.000000
 CONSERVED QUANTITY [hartree] =                              -0.443894935664E+03

                                              INSTANTANEOUS             AVERAGES
 CPU TIME [s]                 =                      154.50               358.94
 ENERGY DRIFT PER ATOM [K]    =          0.376131382521E+00   0.188065691260E+00
 POTENTIAL ENERGY[hartree]    =         -0.484064784176E+03  -0.484058576860E+03
 TOTAL KINETIC ENERGY[hartree]=          0.401637960092E+02   0.401605851863E+02
 QM KINETIC ENERGY[hartree]   =          0.155674580160E+00   0.152252715872E+00
 TOTAL TEMPERATURE[K]         =                     299.159              299.135
 QM TEMPERATURE[K]            =                     390.144              381.568
 *******************************************************************************


  Translating the system in order to center the QM fragment in the QM box.

 Number of electrons:                                                        226
 Number of occupied orbitals:                                                113
 Number of molecular orbitals:                                               113

 Number of orbital functions:                                                740
 Number of independent orbital functions:                                    740

 Extrapolation method: ASPC


 SCF WAVEFUNCTION OPTIMIZATION

  ----------------------------------- OT ---------------------------------------
  Minimizer      : DIIS                : direct inversion
                                         in the iterative subspace
                                         using   7 DIIS vectors
                                         safer DIIS on
  Preconditioner : FULL_SINGLE_INVERSE : inversion of 
                                         H + eS - 2*(Sc)(c^T*H*c+const)(Sc)^T
  Precond_solver : DEFAULT
  stepsize       :    0.08000000                  energy_gap     :    0.08000000
  eps_taylor     :   0.10000E-15                  max_taylor     :             4
  ----------------------------------- OT ---------------------------------------

  Step     Update method      Time    Convergence         Total energy    Change
  ------------------------------------------------------------------------------
     1 OT DIIS     0.80E-01    4.1     0.00038754      -362.8086810101 -3.63E+02
     2 OT DIIS     0.80E-01    5.1     0.00023873      -362.8091963193 -5.15E-04
     3 OT DIIS     0.80E-01    5.1     0.00015174      -362.8093228852 -1.27E-04
     4 OT DIIS     0.80E-01    5.1     0.00007789      -362.8093974261 -7.45E-05
     5 OT DIIS     0.80E-01    5.1     0.00005939      -362.8094171498 -1.97E-05
     6 OT DIIS     0.80E-01    5.1     0.00003312      -362.8094234563 -6.31E-06
     7 OT DIIS     0.80E-01    5.1     0.00001887      -362.8094263163 -2.86E-06
     8 OT DIIS     0.80E-01    5.1     0.00001357      -362.8094273367 -1.02E-06
     9 OT DIIS     0.80E-01    5.1     0.00001019      -362.8094278830 -5.46E-07
    10 OT DIIS     0.80E-01    5.1     0.00000769      -362.8094282904 -4.07E-07
    11 OT DIIS     0.80E-01    5.1     0.00000665      -362.8094286813 -3.91E-07
    12 OT DIIS     0.80E-01    5.1     0.00000585      -362.8094291090 -4.28E-07
    13 OT DIIS     0.80E-01    5.1     0.00000529      -362.8094295416 -4.33E-07
    14 OT DIIS     0.80E-01    5.1     0.00000531      -362.8094298641 -3.22E-07
    15 OT DIIS     0.80E-01    5.1     0.00000384      -362.8094301402 -2.76E-07
    16 OT DIIS     0.80E-01    5.1     0.00000317      -362.8094302952 -1.55E-07
    17 OT DIIS     0.80E-01    5.1     0.00000237      -362.8094303749 -7.98E-08
    18 OT DIIS     0.80E-01    5.1     0.00000173      -362.8094303987 -2.38E-08
    19 OT DIIS     0.80E-01    5.1     0.00000117      -362.8094304126 -1.39E-08
    20 OT DIIS     0.80E-01    5.1     0.00000078      -362.8094304158 -3.27E-09

  *** SCF run converged in    20 steps ***


  Electronic density on regular grids:       -225.9999999952        0.0000000048
  Core density on regular grids:              225.9999999872       -0.0000000128
  Total charge density on r-space grids:       -0.0000000081
  Total charge density g-space grids:          -0.0000000081

  Overlap energy of the core charge distribution:               0.00001136816351
  Self energy of the core charge distribution:               -887.32449380202411
  Core Hamiltonian energy:                                    270.28971334584037
  Hartree energy:                                             361.46039317172165
  Exchange-correlation energy:                               -103.19883894448890
  QM/MM Electrostatic energy:                                  -4.03621555505187

  Total energy:                                              -362.80943041583930

  outer SCF iter =    1 RMS gradient =   0.78E-06 energy =       -362.8094304158
  outer SCF loop converged in   1 iterations or   20 steps


 ENERGY| Total FORCE_EVAL ( QMMM ) energy (a.u.):           -484.126299473997506


 *******************************************************************************
 ENSEMBLE TYPE                =                                              NVT
 STEP NUMBER                  =                                                3
 TIME [fs]                    =                                         3.000000
 CONSERVED QUANTITY [hartree] =                              -0.443905931544E+03

                                              INSTANTANEOUS             AVERAGES
 CPU TIME [s]                 =                      153.48               290.45
 ENERGY DRIFT PER ATOM [K]    =          0.253281823805E+00   0.209804402109E+00
 POTENTIAL ENERGY[hartree]    =         -0.484126299474E+03  -0.484081151065E+03
 TOTAL KINETIC ENERGY[hartree]=          0.402114757534E+02   0.401775487087E+02
 QM KINETIC ENERGY[hartree]   =          0.162616779883E+00   0.155707403876E+00
 TOTAL TEMPERATURE[K]         =                     299.514              299.262
 QM TEMPERATURE[K]            =                     407.542              390.226
 *******************************************************************************


  Translating the system in order to center the QM fragment in the QM box.

 Number of electrons:                                                        226
 Number of occupied orbitals:                                                113
 Number of molecular orbitals:                                               113

 Number of orbital functions:                                                740
 Number of independent orbital functions:                                    740

 Extrapolation method: ASPC


 SCF WAVEFUNCTION OPTIMIZATION

  ----------------------------------- OT ---------------------------------------
  Minimizer      : DIIS                : direct inversion
                                         in the iterative subspace
                                         using   7 DIIS vectors
                                         safer DIIS on
  Preconditioner : FULL_SINGLE_INVERSE : inversion of 
                                         H + eS - 2*(Sc)(c^T*H*c+const)(Sc)^T
  Precond_solver : DEFAULT
  stepsize       :    0.08000000                  energy_gap     :    0.08000000
  eps_taylor     :   0.10000E-15                  max_taylor     :             4
  ----------------------------------- OT ---------------------------------------

  Step     Update method      Time    Convergence         Total energy    Change
  ------------------------------------------------------------------------------
     1 OT DIIS     0.80E-01    4.1     0.00044676      -362.5869012305 -3.63E+02
     2 OT DIIS     0.80E-01    5.1     0.00024880      -362.5876572827 -7.56E-04
     3 OT DIIS     0.80E-01    5.1     0.00018596      -362.5878205452 -1.63E-04
     4 OT DIIS     0.80E-01    5.1     0.00009467      -362.5879247023 -1.04E-04
     5 OT DIIS     0.80E-01    5.1     0.00007456      -362.5879555948 -3.09E-05
     6 OT DIIS     0.80E-01    5.1     0.00004038      -362.5879657382 -1.01E-05
     7 OT DIIS     0.80E-01    5.1     0.00001993      -362.5879699005 -4.16E-06
     8 OT DIIS     0.80E-01    5.1     0.00001380      -362.5879710610 -1.16E-06
     9 OT DIIS     0.80E-01    5.1     0.00001060      -362.5879715615 -5.00E-07
    10 OT DIIS     0.80E-01    5.1     0.00000720      -362.5879719135 -3.52E-07
    11 OT DIIS     0.80E-01    5.1     0.00000600      -362.5879722301 -3.17E-07
    12 OT DIIS     0.80E-01    5.1     0.00000508      -362.5879725219 -2.92E-07
    13 OT DIIS     0.80E-01    5.1     0.00000453      -362.5879727811 -2.59E-07
    14 OT DIIS     0.80E-01    5.1     0.00000407      -362.5879729579 -1.77E-07
    15 OT DIIS     0.80E-01    5.1     0.00000291      -362.5879730699 -1.12E-07
    16 OT DIIS     0.80E-01    5.1     0.00000218      -362.5879731377 -6.78E-08
    17 OT DIIS     0.80E-01    5.1     0.00000179      -362.5879731601 -2.24E-08
    18 OT DIIS     0.80E-01    5.1     0.00000125      -362.5879731687 -8.67E-09
    19 OT DIIS     0.80E-01    5.1     0.00000077      -362.5879731729 -4.14E-09

  *** SCF run converged in    19 steps ***


  Electronic density on regular grids:       -225.9999999927        0.0000000073
  Core density on regular grids:              225.9999999871       -0.0000000129
  Total charge density on r-space grids:       -0.0000000056
  Total charge density g-space grids:          -0.0000000056

  Overlap energy of the core charge distribution:               0.00001138309090
  Self energy of the core charge distribution:               -887.32449380202411
  Core Hamiltonian energy:                                    270.06691032966802
  Hartree energy:                                             361.61805900730803
  Exchange-correlation energy:                               -103.14337277462069
  QM/MM Electrostatic energy:                                  -3.80508731629088

  Total energy:                                              -362.58797317286883

  outer SCF iter =    1 RMS gradient =   0.77E-06 energy =       -362.5879731729
  outer SCF loop converged in   1 iterations or   19 steps


 ENERGY| Total FORCE_EVAL ( QMMM ) energy (a.u.):           -484.141163450538329


 *******************************************************************************
 ENSEMBLE TYPE                =                                              NVT
 STEP NUMBER                  =                                                4
 TIME [fs]                    =                                         4.000000
 CONSERVED QUANTITY [hartree] =                              -0.443890117336E+03

                                              INSTANTANEOUS             AVERAGES
 CPU TIME [s]                 =                      148.97               255.08
 ENERGY DRIFT PER ATOM [K]    =          0.429963325305E+00   0.264844132908E+00
 POTENTIAL ENERGY[hartree]    =         -0.484141163451E+03  -0.484096154161E+03
 TOTAL KINETIC ENERGY[hartree]=          0.402392711859E+02   0.401929793280E+02
 QM KINETIC ENERGY[hartree]   =          0.171817362954E+00   0.159734893645E+00
 TOTAL TEMPERATURE[K]         =                     299.721              299.377
 QM TEMPERATURE[K]            =                     430.600              400.319
 *******************************************************************************


  Translating the system in order to center the QM fragment in the QM box.

 Number of electrons:                                                        226
 Number of occupied orbitals:                                                113
 Number of molecular orbitals:                                               113

 Number of orbital functions:                                                740
 Number of independent orbital functions:                                    740

 Extrapolation method: ASPC


 SCF WAVEFUNCTION OPTIMIZATION

  ----------------------------------- OT ---------------------------------------
  Minimizer      : DIIS                : direct inversion
                                         in the iterative subspace
                                         using   7 DIIS vectors
                                         safer DIIS on
  Preconditioner : FULL_SINGLE_INVERSE : inversion of 
                                         H + eS - 2*(Sc)(c^T*H*c+const)(Sc)^T
  Precond_solver : DEFAULT
  stepsize       :    0.08000000                  energy_gap     :    0.08000000
  eps_taylor     :   0.10000E-15                  max_taylor     :             4
  ----------------------------------- OT ---------------------------------------

  Step     Update method      Time    Convergence         Total energy    Change
  ------------------------------------------------------------------------------
     1 OT DIIS     0.80E-01    4.1     0.00048271      -362.2425149394 -3.62E+02
     2 OT DIIS     0.80E-01    5.1     0.00029230      -362.2434280397 -9.13E-04
     3 OT DIIS     0.80E-01    5.1     0.00021860      -362.2436583556 -2.30E-04
     4 OT DIIS     0.80E-01    5.1     0.00010953      -362.2438257261 -1.67E-04
     5 OT DIIS     0.80E-01    5.1     0.00008549      -362.2438731801 -4.75E-05
     6 OT DIIS     0.80E-01    5.1     0.00005241      -362.2438870761 -1.39E-05
     7 OT DIIS     0.80E-01    5.1     0.00002446      -362.2438934908 -6.41E-06
     8 OT DIIS     0.80E-01    5.1     0.00001787      -362.2438954069 -1.92E-06
     9 OT DIIS     0.80E-01    5.1     0.00001449      -362.2438965917 -1.18E-06
    10 OT DIIS     0.80E-01    5.1     0.00001112      -362.2438974003 -8.09E-07
    11 OT DIIS     0.80E-01    5.1     0.00000925      -362.2438985341 -1.13E-06
    12 OT DIIS     0.80E-01    5.1     0.00000790      -362.2438994815 -9.47E-07
    13 OT DIIS     0.80E-01    5.1     0.00000641      -362.2439003227 -8.41E-07
    14 OT DIIS     0.80E-01    5.1     0.00000653      -362.2439007013 -3.79E-07
    15 OT DIIS     0.80E-01    5.1     0.00000407      -362.2439009028 -2.01E-07
    16 OT DIIS     0.80E-01    5.1     0.00000286      -362.2439009975 -9.47E-08
    17 OT DIIS     0.80E-01    5.1     0.00000227      -362.2439010339 -3.64E-08
    18 OT DIIS     0.80E-01    5.1     0.00000152      -362.2439010451 -1.12E-08
    19 OT DIIS     0.80E-01    5.1     0.00000101      -362.2439010495 -4.40E-09
    20 OT DIIS     0.80E-01    5.1     0.00000070      -362.2439010516 -2.06E-09

  *** SCF run converged in    20 steps ***


  Electronic density on regular grids:       -225.9999999892        0.0000000108
  Core density on regular grids:              225.9999999869       -0.0000000131
  Total charge density on r-space grids:       -0.0000000022
  Total charge density g-space grids:          -0.0000000022

  Overlap energy of the core charge distribution:               0.00001146205347
  Self energy of the core charge distribution:               -887.32449380202411
  Core Hamiltonian energy:                                    269.82317503770713
  Hartree energy:                                             361.78953806508628
  Exchange-correlation energy:                               -103.08085972550042
  QM/MM Electrostatic energy:                                  -3.45127208890394

  Total energy:                                              -362.24390105158159

  outer SCF iter =    1 RMS gradient =   0.70E-06 energy =       -362.2439010516
  outer SCF loop converged in   1 iterations or   20 steps


 ENERGY| Total FORCE_EVAL ( QMMM ) energy (a.u.):           -484.345276349801850


 *******************************************************************************
 ENSEMBLE TYPE                =                                              NVT
 STEP NUMBER                  =                                                5
 TIME [fs]                    =                                         5.000000
 CONSERVED QUANTITY [hartree] =                              -0.443918355591E+03

                                              INSTANTANEOUS             AVERAGES
 CPU TIME [s]                 =                      153.50               234.77
 ENERGY DRIFT PER ATOM [K]    =          0.114476299177E+00   0.234770566162E+00
 POTENTIAL ENERGY[hartree]    =         -0.484345276350E+03  -0.484145978599E+03
 TOTAL KINETIC ENERGY[hartree]=          0.404122056046E+02   0.402368245833E+02
 QM KINETIC ENERGY[hartree]   =          0.180846820557E+00   0.163957279028E+00
 TOTAL TEMPERATURE[K]         =                     301.010              299.703
 QM TEMPERATURE[K]            =                     453.229              410.901
 *******************************************************************************


  Translating the system in order to center the QM fragment in the QM box.

 Number of electrons:                                                        226
 Number of occupied orbitals:                                                113
 Number of molecular orbitals:                                               113

 Number of orbital functions:                                                740
 Number of independent orbital functions:                                    740

 Extrapolation method: ASPC


 SCF WAVEFUNCTION OPTIMIZATION

  ----------------------------------- OT ---------------------------------------
  Minimizer      : DIIS                : direct inversion
                                         in the iterative subspace
                                         using   7 DIIS vectors
                                         safer DIIS on
  Preconditioner : FULL_SINGLE_INVERSE : inversion of 
                                         H + eS - 2*(Sc)(c^T*H*c+const)(Sc)^T
  Precond_solver : DEFAULT
  stepsize       :    0.08000000                  energy_gap     :    0.08000000
  eps_taylor     :   0.10000E-15                  max_taylor     :             4
  ----------------------------------- OT ---------------------------------------

  Step     Update method      Time    Convergence         Total energy    Change
  ------------------------------------------------------------------------------
     1 OT DIIS     0.80E-01    4.1     0.00036160      -361.6293026376 -3.62E+02
     2 OT DIIS     0.80E-01    5.1     0.00020934      -361.6298603002 -5.58E-04
     3 OT DIIS     0.80E-01    5.1     0.00015838      -361.6300174618 -1.57E-04
     4 OT DIIS     0.80E-01    5.1     0.00008224      -361.6301190437 -1.02E-04
     5 OT DIIS     0.80E-01    5.1     0.00003876      -361.6301474556 -2.84E-05
     6 OT DIIS     0.80E-01    5.1     0.00003049      -361.6301526257 -5.17E-06
     7 OT DIIS     0.80E-01    5.1     0.00001481      -361.6301543825 -1.76E-06
     8 OT DIIS     0.80E-01    5.1     0.00000954      -361.6301549259 -5.43E-07
     9 OT DIIS     0.80E-01    5.1     0.00000646      -361.6301552050 -2.79E-07
    10 OT DIIS     0.80E-01    5.1     0.00000543      -361.6301553552 -1.50E-07
    11 OT DIIS     0.80E-01    5.1     0.00000432      -361.6301555107 -1.56E-07
    12 OT DIIS     0.80E-01    5.1     0.00000384      -361.6301556617 -1.51E-07
    13 OT DIIS     0.80E-01    5.1     0.00000313      -361.6301558135 -1.52E-07
    14 OT DIIS     0.80E-01    5.1     0.00000276      -361.6301559482 -1.35E-07
    15 OT DIIS     0.80E-01    5.1     0.00000240      -361.6301560222 -7.40E-08
    16 OT DIIS     0.80E-01    5.1     0.00000182      -361.6301560705 -4.83E-08
    17 OT DIIS     0.80E-01    5.1     0.00000129      -361.6301560995 -2.90E-08
    18 OT DIIS     0.80E-01    5.1     0.00000102      -361.6301561080 -8.50E-09
    19 OT DIIS     0.80E-01    5.1     0.00000072      -361.6301561111 -3.06E-09

  *** SCF run converged in    19 steps ***


  Electronic density on regular grids:       -226.0000000035       -0.0000000035
  Core density on regular grids:              225.9999999870       -0.0000000130
  Total charge density on r-space grids:       -0.0000000166
  Total charge density g-space grids:          -0.0000000166

  Overlap energy of the core charge distribution:               0.00001123187352
  Self energy of the core charge distribution:               -887.32449380202411
  Core Hamiltonian energy:                                    269.57687098414806
  Hartree energy:                                             361.96258681256643
  Exchange-correlation energy:                               -103.01721279520353
  QM/MM Electrostatic energy:                                  -2.82791854241444

  Total energy:                                              -361.63015611105413

  outer SCF iter =    1 RMS gradient =   0.72E-06 energy =       -361.6301561111
  outer SCF loop converged in   1 iterations or   19 steps


 ENERGY| Total FORCE_EVAL ( QMMM ) energy (a.u.):           -484.385228000397376


 *******************************************************************************
 ENSEMBLE TYPE                =                                              NVT
 STEP NUMBER                  =                                                6
 TIME [fs]                    =                                         6.000000
 CONSERVED QUANTITY [hartree] =                              -0.443895142989E+03

                                              INSTANTANEOUS             AVERAGES
 CPU TIME [s]                 =                      149.40               220.54
 ENERGY DRIFT PER ATOM [K]    =          0.373815086922E+00   0.257944652955E+00
 POTENTIAL ENERGY[hartree]    =         -0.484385228000E+03  -0.484185853499E+03
 TOTAL KINETIC ENERGY[hartree]=          0.404723423548E+02   0.402760775452E+02
 QM KINETIC ENERGY[hartree]   =          0.188901101450E+00   0.168114582765E+00
 TOTAL TEMPERATURE[K]         =                     301.457              299.996
 QM TEMPERATURE[K]            =                     473.414              421.320
 *******************************************************************************


  Translating the system in order to center the QM fragment in the QM box.

 Number of electrons:                                                        226
 Number of occupied orbitals:                                                113
 Number of molecular orbitals:                                               113

 Number of orbital functions:                                                740
 Number of independent orbital functions:                                    740

 Extrapolation method: ASPC


 SCF WAVEFUNCTION OPTIMIZATION

  ----------------------------------- OT ---------------------------------------
  Minimizer      : DIIS                : direct inversion
                                         in the iterative subspace
                                         using   7 DIIS vectors
                                         safer DIIS on
  Preconditioner : FULL_SINGLE_INVERSE : inversion of 
                                         H + eS - 2*(Sc)(c^T*H*c+const)(Sc)^T
  Precond_solver : DEFAULT
  stepsize       :    0.08000000                  energy_gap     :    0.08000000
  eps_taylor     :   0.10000E-15                  max_taylor     :             4
  ----------------------------------- OT ---------------------------------------

  Step     Update method      Time    Convergence         Total energy    Change
  ------------------------------------------------------------------------------
     1 OT DIIS     0.80E-01    4.1     0.00040853      -361.7139719376 -3.62E+02
     2 OT DIIS     0.80E-01    5.1     0.00023872      -361.7145593798 -5.87E-04
     3 OT DIIS     0.80E-01    5.1     0.00015853      -361.7146931104 -1.34E-04
     4 OT DIIS     0.80E-01    5.1     0.00008366      -361.7147729305 -7.98E-05
     5 OT DIIS     0.80E-01    5.1     0.00007183      -361.7147941174 -2.12E-05
     6 OT DIIS     0.80E-01    5.1     0.00003240      -361.7148031715 -9.05E-06
     7 OT DIIS     0.80E-01    5.1     0.00001826      -361.7148062047 -3.03E-06
     8 OT DIIS     0.80E-01    5.1     0.00001266      -361.7148070319 -8.27E-07
     9 OT DIIS     0.80E-01    5.1     0.00000747      -361.7148073402 -3.08E-07
    10 OT DIIS     0.80E-01    5.1     0.00000428      -361.7148074641 -1.24E-07
    11 OT DIIS     0.80E-01    5.1     0.00000276      -361.7148075236 -5.95E-08
    12 OT DIIS     0.80E-01    5.1     0.00000211      -361.7148075526 -2.89E-08
    13 OT DIIS     0.80E-01    5.1     0.00000180      -361.7148075736 -2.10E-08
    14 OT DIIS     0.80E-01    5.1     0.00000163      -361.7148075855 -1.19E-08
    15 OT DIIS     0.80E-01    5.1     0.00000112      -361.7148075969 -1.14E-08
    16 OT DIIS     0.80E-01    5.1     0.00000098      -361.7148076049 -8.02E-09

  *** SCF run converged in    16 steps ***


  Electronic density on regular grids:       -226.0000000221       -0.0000000221
  Core density on regular grids:              225.9999999871       -0.0000000129
  Total charge density on r-space grids:       -0.0000000349
  Total charge density g-space grids:          -0.0000000350

  Overlap energy of the core charge distribution:               0.00001092456017
  Self energy of the core charge distribution:               -887.32449380202411
  Core Hamiltonian energy:                                    269.34293839574360
  Hartree energy:                                             362.12935640609902
  Exchange-correlation energy:                               -102.95825961380419
  QM/MM Electrostatic energy:                                  -2.90435991548441

  Total energy:                                              -361.71480760490977

  outer SCF iter =    1 RMS gradient =   0.98E-06 energy =       -361.7148076049
  outer SCF loop converged in   1 iterations or   16 steps


 ENERGY| Total FORCE_EVAL ( QMMM ) energy (a.u.):           -484.437520750593876


 *******************************************************************************
 ENSEMBLE TYPE                =                                              NVT
 STEP NUMBER                  =                                                7
 TIME [fs]                    =                                         7.000000
 CONSERVED QUANTITY [hartree] =                              -0.443886107054E+03

                                              INSTANTANEOUS             AVERAGES
 CPU TIME [s]                 =                      133.97               208.17
 ENERGY DRIFT PER ATOM [K]    =          0.474767498345E+00   0.288919345154E+00
 POTENTIAL ENERGY[hartree]    =         -0.484437520751E+03  -0.484221805964E+03
 TOTAL KINETIC ENERGY[hartree]=          0.405305452678E+02   0.403124300770E+02
 QM KINETIC ENERGY[hartree]   =          0.194102133169E+00   0.171827089965E+00
 TOTAL TEMPERATURE[K]         =                     301.891              300.266
 QM TEMPERATURE[K]            =                     486.449              430.624
 *******************************************************************************


  Translating the system in order to center the QM fragment in the QM box.

 Number of electrons:                                                        226
 Number of occupied orbitals:                                                113
 Number of molecular orbitals:                                               113

 Number of orbital functions:                                                740
 Number of independent orbital functions:                                    740

 Extrapolation method: ASPC


 SCF WAVEFUNCTION OPTIMIZATION

  ----------------------------------- OT ---------------------------------------
  Minimizer      : DIIS                : direct inversion
                                         in the iterative subspace
                                         using   7 DIIS vectors
                                         safer DIIS on
  Preconditioner : FULL_SINGLE_INVERSE : inversion of 
                                         H + eS - 2*(Sc)(c^T*H*c+const)(Sc)^T
  Precond_solver : DEFAULT
  stepsize       :    0.08000000                  energy_gap     :    0.08000000
  eps_taylor     :   0.10000E-15                  max_taylor     :             4
  ----------------------------------- OT ---------------------------------------

  Step     Update method      Time    Convergence         Total energy    Change
  ------------------------------------------------------------------------------
     1 OT DIIS     0.80E-01    4.1     0.00035851      -361.7449328277 -3.62E+02
     2 OT DIIS     0.80E-01    5.1     0.00021185      -361.7453672128 -4.34E-04
     3 OT DIIS     0.80E-01    5.1     0.00013566      -361.7454639892 -9.68E-05
     4 OT DIIS     0.80E-01    5.1     0.00006411      -361.7455197451 -5.58E-05
     5 OT DIIS     0.80E-01    5.1     0.00005243      -361.7455348087 -1.51E-05
     6 OT DIIS     0.80E-01    5.1     0.00002961      -361.7455397548 -4.95E-06
     7 OT DIIS     0.80E-01    5.1     0.00001563      -361.7455419739 -2.22E-06
     8 OT DIIS     0.80E-01    5.1     0.00000941      -361.7455426488 -6.75E-07
     9 OT DIIS     0.80E-01    5.1     0.00000661      -361.7455428878 -2.39E-07
    10 OT DIIS     0.80E-01    5.1     0.00000404      -361.7455429940 -1.06E-07
    11 OT DIIS     0.80E-01    5.1     0.00000303      -361.7455430659 -7.19E-08
    12 OT DIIS     0.80E-01    5.1     0.00000255      -361.7455431108 -4.49E-08
    13 OT DIIS     0.80E-01    5.1     0.00000221      -361.7455431547 -4.39E-08
    14 OT DIIS     0.80E-01    5.1     0.00000219      -361.7455431884 -3.37E-08
    15 OT DIIS     0.80E-01    5.1     0.00000180      -361.7455432221 -3.37E-08
    16 OT DIIS     0.80E-01    5.1     0.00000153      -361.7455432543 -3.21E-08
    17 OT DIIS     0.80E-01    5.1     0.00000133      -361.7455432846 -3.03E-08
    18 OT DIIS     0.80E-01    5.1     0.00000110      -361.7455433011 -1.66E-08
    19 OT DIIS     0.80E-01    5.1     0.00000081      -361.7455433167 -1.55E-08

  *** SCF run converged in    19 steps ***


  Electronic density on regular grids:       -226.0000000152       -0.0000000152
  Core density on regular grids:              225.9999999869       -0.0000000131
  Total charge density on r-space grids:       -0.0000000282
  Total charge density g-space grids:          -0.0000000283

  Overlap energy of the core charge distribution:               0.00001149892015
  Self energy of the core charge distribution:               -887.32449380202411
  Core Hamiltonian energy:                                    269.15177736289348
  Hartree energy:                                             362.27410130413898
  Exchange-correlation energy:                               -102.91119774494939
  QM/MM Electrostatic energy:                                  -2.93574193563801

  Total energy:                                              -361.74554331665888

  outer SCF iter =    1 RMS gradient =   0.81E-06 energy =       -361.7455433167
  outer SCF loop converged in   1 iterations or   19 steps


 ENERGY| Total FORCE_EVAL ( QMMM ) energy (a.u.):           -484.608768757577195


 *******************************************************************************
 ENSEMBLE TYPE                =                                              NVT
 STEP NUMBER                  =                                                8
 TIME [fs]                    =                                         8.000000
 CONSERVED QUANTITY [hartree] =                              -0.443922707959E+03

                                              INSTANTANEOUS             AVERAGES
 CPU TIME [s]                 =                      149.45               200.83
 ENERGY DRIFT PER ATOM [K]    =          0.658502247414E-01   0.261035705102E+00
 POTENTIAL ENERGY[hartree]    =         -0.484608768758E+03  -0.484270176313E+03
 TOTAL KINETIC ENERGY[hartree]=          0.406619515641E+02   0.403561202629E+02
 QM KINETIC ENERGY[hartree]   =          0.192223882944E+00   0.174376689088E+00
 TOTAL TEMPERATURE[K]         =                     302.870              300.592
 QM TEMPERATURE[K]            =                     481.741              437.014
 *******************************************************************************


  Translating the system in order to center the QM fragment in the QM box.

 Number of electrons:                                                        226
 Number of occupied orbitals:                                                113
 Number of molecular orbitals:                                               113

 Number of orbital functions:                                                740
 Number of independent orbital functions:                                    740

 Extrapolation method: ASPC


 SCF WAVEFUNCTION OPTIMIZATION

  ----------------------------------- OT ---------------------------------------
  Minimizer      : DIIS                : direct inversion
                                         in the iterative subspace
                                         using   7 DIIS vectors
                                         safer DIIS on
  Preconditioner : FULL_SINGLE_INVERSE : inversion of 
                                         H + eS - 2*(Sc)(c^T*H*c+const)(Sc)^T
  Precond_solver : DEFAULT
  stepsize       :    0.08000000                  energy_gap     :    0.08000000
  eps_taylor     :   0.10000E-15                  max_taylor     :             4
  ----------------------------------- OT ---------------------------------------

  Step     Update method      Time    Convergence         Total energy    Change
  ------------------------------------------------------------------------------
     1 OT DIIS     0.80E-01    4.1     0.00031817      -361.2628466728 -3.61E+02
     2 OT DIIS     0.80E-01    5.1     0.00017671      -361.2632447079 -3.98E-04
     3 OT DIIS     0.80E-01    5.1     0.00014354      -361.2633280592 -8.34E-05
     4 OT DIIS     0.80E-01    5.1     0.00007595      -361.2633840368 -5.60E-05
     5 OT DIIS     0.80E-01    5.1     0.00006140      -361.2634007310 -1.67E-05
     6 OT DIIS     0.80E-01    5.1     0.00003413      -361.2634090253 -8.29E-06
     7 OT DIIS     0.80E-01    5.1     0.00002295      -361.2634137270 -4.70E-06
     8 OT DIIS     0.80E-01    5.1     0.00001948      -361.2634166804 -2.95E-06
     9 OT DIIS     0.80E-01    5.1     0.00001710      -361.2634192710 -2.59E-06
    10 OT DIIS     0.80E-01    5.1     0.00001495      -361.2634213470 -2.08E-06
    11 OT DIIS     0.80E-01    5.1     0.00001304      -361.2634245731 -3.23E-06
    12 OT DIIS     0.80E-01    5.1     0.00001214      -361.2634275550 -2.98E-06
    13 OT DIIS     0.80E-01    5.1     0.00001030      -361.2634304711 -2.92E-06
    14 OT DIIS     0.80E-01    5.1     0.00001011      -361.2634319545 -1.48E-06
    15 OT DIIS     0.80E-01    5.1     0.00000680      -361.2634328458 -8.91E-07
    16 OT DIIS     0.80E-01    5.1     0.00000552      -361.2634332876 -4.42E-07
    17 OT DIIS     0.80E-01    5.1     0.00000436      -361.2634334991 -2.12E-07
    18 OT DIIS     0.80E-01    5.1     0.00000311      -361.2634335906 -9.14E-08
    19 OT DIIS     0.80E-01    5.1     0.00000232      -361.2634336397 -4.91E-08
    20 OT DIIS     0.80E-01    5.1     0.00000195      -361.2634336604 -2.07E-08
    21 OT DIIS     0.80E-01    5.1     0.00000156      -361.2634336714 -1.10E-08
    22 OT DIIS     0.80E-01    5.1     0.00000147      -361.2634336786 -7.23E-09
    23 OT DIIS     0.80E-01    5.1     0.00000123      -361.2634336828 -4.22E-09
    24 OT DIIS     0.80E-01    5.1     0.00000104      -361.2634336881 -5.27E-09
    25 OT DIIS     0.80E-01    5.1     0.00000097      -361.2634336918 -3.75E-09

  *** SCF run converged in    25 steps ***


  Electronic density on regular grids:       -226.0000000072       -0.0000000072
  Core density on regular grids:              225.9999999869       -0.0000000131
  Total charge density on r-space grids:       -0.0000000203
  Total charge density g-space grids:          -0.0000000203

  Overlap energy of the core charge distribution:               0.00001357061247
  Self energy of the core charge distribution:               -887.32449380202411
  Core Hamiltonian energy:                                    269.02697203930910
  Hartree energy:                                             362.37832633616841
  Exchange-correlation energy:                               -102.88016938492987
  QM/MM Electrostatic energy:                                  -2.46408245095122

  Total energy:                                              -361.26343369181507

  outer SCF iter =    1 RMS gradient =   0.97E-06 energy =       -361.2634336918
  outer SCF loop converged in   1 iterations or   25 steps


 ENERGY| Total FORCE_EVAL ( QMMM ) energy (a.u.):           -484.522371263232571


 *******************************************************************************
 ENSEMBLE TYPE                =                                              NVT
 STEP NUMBER                  =                                                9
 TIME [fs]                    =                                         9.000000
 CONSERVED QUANTITY [hartree] =                              -0.443879592363E+03

                                              INSTANTANEOUS             AVERAGES
 CPU TIME [s]                 =                      179.50               198.46
 ENERGY DRIFT PER ATOM [K]    =          0.547551758049E+00   0.292870822096E+00
 POTENTIAL ENERGY[hartree]    =         -0.484522371263E+03  -0.484298197974E+03
 TOTAL KINETIC ENERGY[hartree]=          0.406152975532E+02   0.403849177396E+02
 QM KINETIC ENERGY[hartree]   =          0.182839075437E+00   0.175316954238E+00
 TOTAL TEMPERATURE[K]         =                     302.522              300.806
 QM TEMPERATURE[K]            =                     458.222              439.370
 *******************************************************************************


  Translating the system in order to center the QM fragment in the QM box.

 Number of electrons:                                                        226
 Number of occupied orbitals:                                                113
 Number of molecular orbitals:                                               113

 Number of orbital functions:                                                740
 Number of independent orbital functions:                                    740

 Extrapolation method: ASPC


 SCF WAVEFUNCTION OPTIMIZATION

  ----------------------------------- OT ---------------------------------------
  Minimizer      : DIIS                : direct inversion
                                         in the iterative subspace
                                         using   7 DIIS vectors
                                         safer DIIS on
  Preconditioner : FULL_SINGLE_INVERSE : inversion of 
                                         H + eS - 2*(Sc)(c^T*H*c+const)(Sc)^T
  Precond_solver : DEFAULT
  stepsize       :    0.08000000                  energy_gap     :    0.08000000
  eps_taylor     :   0.10000E-15                  max_taylor     :             4
  ----------------------------------- OT ---------------------------------------

  Step     Update method      Time    Convergence         Total energy    Change
  ------------------------------------------------------------------------------
     1 OT DIIS     0.80E-01    4.1     0.00056303      -361.2141251337 -3.61E+02
     2 OT DIIS     0.80E-01    5.1     0.00027397      -361.2152688742 -1.14E-03
     3 OT DIIS     0.80E-01    5.1     0.00017318      -361.2154902194 -2.21E-04
     4 OT DIIS     0.80E-01    5.1     0.00011425      -361.2155916494 -1.01E-04
     5 OT DIIS     0.80E-01    5.1     0.00007985      -361.2156246557 -3.30E-05
     6 OT DIIS     0.80E-01    5.1     0.00005171      -361.2156393586 -1.47E-05
     7 OT DIIS     0.80E-01    5.1     0.00002936      -361.2156483036 -8.95E-06
     8 OT DIIS     0.80E-01    5.1     0.00002419      -361.2156528628 -4.56E-06
     9 OT DIIS     0.80E-01    5.1     0.00001759      -361.2156562945 -3.43E-06
    10 OT DIIS     0.80E-01    5.1     0.00001500      -361.2156588424 -2.55E-06
    11 OT DIIS     0.80E-01    5.1     0.00001251      -361.2156611865 -2.34E-06
    12 OT DIIS     0.80E-01    5.1     0.00001013      -361.2156632073 -2.02E-06
    13 OT DIIS     0.80E-01    5.1     0.00000861      -361.2156645997 -1.39E-06
    14 OT DIIS     0.80E-01    5.1     0.00000796      -361.2156652741 -6.74E-07
    15 OT DIIS     0.80E-01    5.1     0.00000560      -361.2156656285 -3.54E-07
    16 OT DIIS     0.80E-01    5.1     0.00000406      -361.2156658569 -2.28E-07
    17 OT DIIS     0.80E-01    5.1     0.00000303      -361.2156659463 -8.93E-08
    18 OT DIIS     0.80E-01    5.1     0.00000212      -361.2156659997 -5.34E-08
    19 OT DIIS     0.80E-01    5.1     0.00000169      -361.2156660179 -1.82E-08
[...]
 CONSERVED QUANTITY [hartree] =                              -0.443918830828E+03

                                              INSTANTANEOUS             AVERAGES
 CPU TIME [s]                 =                      133.12               166.84
 ENERGY DRIFT PER ATOM [K]    =          0.109166800567E+00   0.446578913092E+00
 POTENTIAL ENERGY[hartree]    =         -0.484604703757E+03  -0.484590539220E+03
 TOTAL KINETIC ENERGY[hartree]=          0.404879022762E+02   0.406176459970E+02
 QM KINETIC ENERGY[hartree]   =          0.168783956642E+00   0.177201423079E+00
 TOTAL TEMPERATURE[K]         =                     301.573              302.540
 QM TEMPERATURE[K]            =                     422.998              444.093
 *******************************************************************************


 -------------------------------------------------------------------------------
 -                                                                             -
 -                                DBCSR STATISTICS                             -
 -                                                                             -
 -------------------------------------------------------------------------------
 COUNTER                                    TOTAL       BLAS       SMM       ACC
 flops     5 x    17 x    17             11444400       0.0%    100.0%      0.0%
 flops    13 x    17 x    17             27050400       0.0%    100.0%      0.0%
 flops     5 x    32 x    17             32313600       0.0%    100.0%      0.0%
 flops     5 x    17 x    32             32313600       0.0%    100.0%      0.0%
 flops    17 x    17 x    17             57668794       0.0%    100.0%      0.0%
 flops    13 x    32 x    17             76377600       0.0%    100.0%      0.0%
 flops    13 x    17 x    32             76377600       0.0%    100.0%      0.0%
 flops    17 x    17 x    54            222978528       0.0%    100.0%      0.0%
 flops     5 x    32 x    32            243302400       0.0%    100.0%      0.0%
 flops    17 x    17 x    32            325659072       0.0%    100.0%      0.0%
 flops    17 x    32 x    17            325659072       0.0%    100.0%      0.0%
 flops    32 x    17 x    17            325659072       0.0%    100.0%      0.0%
 flops   177 x    17 x    17            447588750       0.0%    100.0%      0.0%
 flops   187 x    17 x    17            472876250       0.0%    100.0%      0.0%
 flops    17 x    17 x    59            487249376       0.0%    100.0%      0.0%
 flops    17 x    17 x    67            553317088       0.0%    100.0%      0.0%
 flops    13 x    32 x    32            575078400       0.0%    100.0%      0.0%
 flops   177 x    17 x    54            609647472       0.0%    100.0%      0.0%
 flops   187 x    17 x    54            644090832       0.0%    100.0%      0.0%
 flops     5 x     5 x    17            739832350       0.0%    100.0%      0.0%
 flops   188 x    17 x    17            950810000       0.0%    100.0%      0.0%
 flops    32 x    17 x    54           1248597504       0.0%    100.0%      0.0%
 flops    17 x    32 x    54           1253885184       0.0%    100.0%      0.0%
 flops   188 x    17 x    54           1295070336       0.0%    100.0%      0.0%
 flops   177 x    17 x    59           1332192624       0.0%    100.0%      0.0%
 flops   187 x    17 x    59           1407457744       0.0%    100.0%      0.0%
 flops   177 x    17 x    67           1512828912       0.0%    100.0%      0.0%
 flops   187 x    17 x    67           1598299472       0.0%    100.0%      0.0%
 flops    32 x    32 x    17           1839015936       0.0%    100.0%      0.0%
 flops    17 x    32 x    32           1839015936       0.0%    100.0%      0.0%
 flops    32 x    17 x    32           1839015936       0.0%    100.0%      0.0%
 flops     5 x    13 x    17           1891485960       0.0%    100.0%      0.0%
 flops    13 x     5 x    17           1891934590       0.0%    100.0%      0.0%
 flops   177 x    17 x    32           2527560000       0.0%    100.0%      0.0%
 flops   177 x    32 x    17           2527560000       0.0%    100.0%      0.0%
 flops   187 x    17 x    32           2670360000       0.0%    100.0%      0.0%
 flops   187 x    32 x    17           2670360000       0.0%    100.0%      0.0%
 flops    32 x    17 x    59           2728416768       0.0%    100.0%      0.0%
 flops    17 x    32 x    59           2739971328       0.0%    100.0%      0.0%
 flops   188 x    17 x    59           2829968512       0.0%    100.0%      0.0%
 flops     5 x    17 x     5           3028000900       0.0%    100.0%      0.0%
 flops    32 x    17 x    67           3098371584       0.0%    100.0%      0.0%
 flops    17 x    32 x    67           3111492864       0.0%    100.0%      0.0%
 flops   188 x    17 x    67           3213693056       0.0%    100.0%      0.0%
 flops   177 x    32 x    54           3442715136       0.0%    100.0%      0.0%
 flops   187 x    32 x    54           3637218816       0.0%    100.0%      0.0%
 flops     5 x     5 x    32           4177876800       0.0%    100.0%      0.0%
 flops    13 x    13 x    17           4763646602       0.0%    100.0%      0.0%
 flops   188 x    32 x    17           5369280000       0.0%    100.0%      0.0%
 flops   188 x    17 x    32           5369280000       0.0%    100.0%      0.0%
 flops    32 x    32 x    54           7080763392       0.0%    100.0%      0.0%
 flops   188 x    32 x    54           7313338368       0.0%    100.0%      0.0%
 flops   177 x    32 x    59           7522970112       0.0%    100.0%      0.0%
 flops   187 x    32 x    59           7947996672       0.0%    100.0%      0.0%
 flops    13 x    17 x     5           7990255000       0.0%    100.0%      0.0%
 flops     5 x    17 x    13           7990255000       0.0%    100.0%      0.0%
 flops   177 x    32 x    67           8543033856       0.0%    100.0%      0.0%
 flops   187 x    32 x    67           9025691136       0.0%    100.0%      0.0%
 flops    32 x    32 x    32          10385031168       0.0%    100.0%      0.0%
 flops     5 x    13 x    32          10681332480       0.0%    100.0%      0.0%
 flops    13 x     5 x    32          10683865920       0.0%    100.0%      0.0%
 flops   177 x    32 x    32          14273280000       0.0%    100.0%      0.0%
 flops   187 x    32 x    32          15079680000       0.0%    100.0%      0.0%
 flops    32 x    32 x    59          15472779264       0.0%    100.0%      0.0%
 flops   188 x    32 x    59          15980998656       0.0%    100.0%      0.0%
 flops     5 x    32 x     5          17099299200       0.0%    100.0%      0.0%
 flops    32 x    32 x    67          17570783232       0.0%    100.0%      0.0%
 flops   188 x    32 x    67          18147913728       0.0%    100.0%      0.0%
 flops    13 x    17 x    13          19661616832       0.0%    100.0%      0.0%
 flops    13 x    13 x    32          26900592576       0.0%    100.0%      0.0%
 flops   188 x    32 x    32          30320640000       0.0%    100.0%      0.0%
 flops     5 x    32 x    13          45121440000       0.0%    100.0%      0.0%
 flops    13 x    32 x     5          45121440000       0.0%    100.0%      0.0%
 flops    13 x    32 x    13         111030306816       0.0%    100.0%      0.0%
 flops inhomo. stacks                 33187712464     100.0%      0.0%      0.0%
 flops total                       604.224883E+09       5.5%     94.5%      0.0%
 flops max/rank                     41.256591E+09       6.0%     94.0%      0.0%
 matmuls inhomo. stacks                    143780     100.0%      0.0%      0.0%
 matmuls total                           72100012       0.2%     99.8%      0.0%
 number of processed stacks               3966968       3.6%     96.4%      0.0%
 average stack size                                     1.0      18.8       0.0
 marketing flops                   679.136395E+09
 -------------------------------------------------------------------------------
 # multiplications                          18068
 max memory usage/rank               2.226438E+09
 # max total images/rank                        3
 # max 3D layers                                1
 # MPI messages exchanged                38159616
 MPI messages size (bytes):
  total size                       286.719967E+09
  min size                           0.000000E+00
  max size                         100.768000E+03
  average size                       7.513702E+03
 MPI breakdown and total messages size (bytes):
             size <=      128            26767444                        0
       128 < size <=     8192             3566574              23799983240
      8192 < size <=    32768             5466362              83306477056
     32768 < size <=   131072             2359236             179578071024
    131072 < size <=  4194304                   0                        0
   4194304 < size <= 16777216                   0                        0
  16777216 < size                               0                        0
 -------------------------------------------------------------------------------

 *** WARNING in dbcsr/mm/dbcsr_mm.F:268 :: Using a non-square number of ***
 *** MPI ranks might lead to poor performance.                          ***
 *** Used ranks: 48                                                     ***
 *** Suggested: 49 100                                                  ***

 -------------------------------------------------------------------------------

 MEMORY| Estimated peak process memory [MiB]                                2124

 -------------------------------------------------------------------------------
 -                                                                             -
 -                         MESSAGE PASSING PERFORMANCE                         -
 -                                                                             -
 -------------------------------------------------------------------------------

 ROUTINE             CALLS      AVE VOLUME [Bytes]
 MP_Group              520
 MP_Bcast            12978                 894448.
 MP_Allreduce       135030                 423895.
 MP_Sync               101
 MP_Alltoall         76947               14881924.
 MP_ISendRecv       175592                 163296.
 MP_Wait           2302781
 MP_comm_split          55
 MP_ISend          1778601                  56521.
 MP_IRecv          1766800                  56612.
 MP_Memory         1372870
 -------------------------------------------------------------------------------


 -------------------------------------------------------------------------------
 -                                                                             -
 -                           R E F E R E N C E S                               -
 -                                                                             -
 -------------------------------------------------------------------------------
 
 CP2K version 6.1, the CP2K developers group (2018).
 CP2K is freely available from https://www.cp2k.org/ .

 Schuett, Ole; Messmer, Peter; Hutter, Juerg; VandeVondele, Joost. 
 Electronic Structure Calculations on Graphics Processing Units, John Wiley & Sons, Ltd, 173-190 (2016). 
 GPU-Accelerated Sparse Matrix-Matrix Multiplication for Linear Scaling Density Functional Theory.
 http://dx.doi.org/10.1002/9781118670712.ch8


 Borstnik, U; VandeVondele, J; Weber, V; Hutter, J. 
 PARALLEL COMPUTING, 40 (5-6), 47-58 (2014). 
 Sparse matrix multiplication: The distributed block-compressed sparse
 row library.
 http://dx.doi.org/10.1016/j.parco.2014.03.012


 Hutter, J; Iannuzzi, M; Schiffmann, F; VandeVondele, J. 
 WILEY INTERDISCIPLINARY REVIEWS-COMPUTATIONAL MOLECULAR SCIENCE, 4 (1), 15-25 (2014). 
 CP2K: atomistic simulations of condensed matter systems.
 http://dx.doi.org/10.1002/wcms.1159


 Laino, T; Mohamed, F; Laio, A; Parrinello, M. 
 JOURNAL OF CHEMICAL THEORY AND COMPUTATION, 1 (6), 1176-1184 (2005). 
 An efficient real space multigrid QM/MM electrostatic coupling.
 http://dx.doi.org/10.1021/ct050123f


 Krack, M. 
 THEORETICAL CHEMISTRY ACCOUNTS, 114 (1-3), 145-152 (2005). 
 Pseudopotentials for H to Kr optimized for gradient-corrected
 exchange-correlation functionals.
 http://dx.doi.org/10.1007/s00214-005-0655-y


 VandeVondele, J; Krack, M; Mohamed, F; Parrinello, M; Chassaing, T;
 Hutter, J. COMPUTER PHYSICS COMMUNICATIONS, 167 (2), 103-128 (2005). 
 QUICKSTEP: Fast and accurate density functional calculations using a
 mixed Gaussian and plane waves approach.
 http://dx.doi.org/10.1016/j.cpc.2004.12.014


 Frigo, M; Johnson, SG. 
 PROCEEDINGS OF THE IEEE, 93 (2), 216-231 (2005). 
 The design and implementation of FFTW3.
 http://dx.doi.org/10.1109/JPROC.2004.840301


 Kolafa, J. 
 JOURNAL OF COMPUTATIONAL CHEMISTRY, 25 (3), 335-342 (2004). 
 Time-reversible always stable predictor-corrector method for molecular dynamics of polarizable molecules.
 http://dx.doi.org/10.1002/jcc.10385


 VandeVondele, J; Hutter, J. 
 JOURNAL OF CHEMICAL PHYSICS, 118 (10), 4365-4369 (2003). 
 An efficient orbital transformation method for electronic structure
 calculations.
 http://dx.doi.org/10.1063/1.1543154


 Hartwigsen, C; Goedecker, S; Hutter, J. 
 PHYSICAL REVIEW B, 58 (7), 3641-3662 (1998). 
 Relativistic separable dual-space Gaussian pseudopotentials from H to Rn.
 http://dx.doi.org/10.1103/PhysRevB.58.3641


 Lippert, G; Hutter, J; Parrinello, M. 
 MOLECULAR PHYSICS, 92 (3), 477-487 (1997). 
 A hybrid Gaussian and plane wave density functional scheme.
 http://dx.doi.org/10.1080/002689797170220


 Goedecker, S; Teter, M; Hutter, J. 
 PHYSICAL REVIEW B, 54 (3), 1703-1710 (1996). 
 Separable dual-space Gaussian pseudopotentials.
 http://dx.doi.org/10.1103/PhysRevB.54.1703


 ESSMANN, U; PERERA, L; BERKOWITZ, ML; DARDEN, T; LEE, H; PEDERSEN, LG. 
 JOURNAL OF CHEMICAL PHYSICS, 103 (19), 8577-8593 (1995). 
 A SMOOTH PARTICLE MESH EWALD METHOD.
 http://dx.doi.org/10.1063/1.470117


 BECKE, AD. PHYSICAL REVIEW A, 38 (6), 3098-3100 (1988). 
 DENSITY-FUNCTIONAL EXCHANGE-ENERGY APPROXIMATION WITH CORRECT
 ASYMPTOTIC-BEHAVIOR.
 http://dx.doi.org/10.1103/PhysRevA.38.3098


 LEE, CT; YANG, WT; PARR, RG. 
 PHYSICAL REVIEW B, 37 (2), 785-789 (1988). 
 DEVELOPMENT OF THE COLLE-SALVETTI CORRELATION-ENERGY FORMULA INTO A
 FUNCTIONAL OF THE ELECTRON-DENSITY.
 http://dx.doi.org/10.1103/PhysRevB.37.785


 NOSE, S. JOURNAL OF CHEMICAL PHYSICS, 81 (1), 511-519 (1984). 
 A UNIFIED FORMULATION OF THE CONSTANT TEMPERATURE MOLECULAR-DYNAMICS
 METHODS.
 http://dx.doi.org/10.1063/1.447334


 NOSE, S. MOLECULAR PHYSICS, 52 (2), 255-268 (1984). 
 A MOLECULAR-DYNAMICS METHOD FOR SIMULATIONS IN THE CANONICAL ENSEMBLE.
 http://dx.doi.org/10.1080/00268978400101201


 -------------------------------------------------------------------------------
 -                                                                             -
 -                                T I M I N G                                  -
 -                                                                             -
 -------------------------------------------------------------------------------
 SUBROUTINE                       CALLS  ASD         SELF TIME        TOTAL TIME
                                MAXIMUM       AVERAGE  MAXIMUM  AVERAGE  MAXIMUM
 CP2K                                 1  1.0    0.992    1.077 6685.989 6686.146
 qs_mol_dyn_low                       1  2.0    0.008    0.009 6673.648 6674.071
 velocity_verlet                     40  3.0    0.079    0.086 6263.368 6263.521
 qs_forces                           41  4.0    0.005    0.006 4783.212 4783.323
 qs_energies                         41  5.0    0.002    0.002 4608.648 4608.758
 scf_env_do_scf                      41  6.0    0.002    0.008 4542.112 4542.219
 scf_env_do_scf_inner_loop          893  6.9    0.027    0.071 4358.392 4358.494
 rebuild_ks_matrix                  934  8.8    0.003    0.003 3762.568 3762.931
 qs_ks_build_kohn_sham_matrix       934  9.8    0.172    0.199 3762.565 3762.928
 qs_ks_update_qs_env                938  7.9    0.008    0.008 3588.886 3589.233
 pw_transfer                      18197 12.3    1.555    2.174 3527.710 3559.273
 fft_wrap_pw1pw2                  16124 13.5    0.250    0.325 3488.991 3520.158
 fft_wrap_pw1pw2_150              10356 14.6  295.213  305.130 3414.123 3443.754
 fft3d_ps                         16124 15.5 1516.149 1541.628 2670.289 2715.643
 qs_vxc_create                      934 10.8    0.029    0.038 2590.127 2590.350
 xc_vxc_pw_create                   934 11.8   35.674   41.260 2590.098 2590.314
 xc_rho_set_and_dset_create         934 12.8   35.705   40.163 1174.127 1220.581
 qmmm_forces                         41  4.0    0.702    0.759 1001.687 1001.713
 qmmm_forces_with_gaussian           41  5.0    1.095    1.246  977.338  985.199
 qs_rho_update_rho                  934  8.0    0.005    0.005  958.268  958.311
 calculate_rho_elec                 934  9.0   17.867  119.482  958.263  958.306
 density_rs2pw                      934 10.0    0.093    0.107  907.904  923.659
 qmmm_el_coupling                    41  4.0    0.002    0.002  872.142  879.855
 qmmm_elec_with_gaussian             41  5.0    0.399    0.572  871.843  879.557
 pw_restrict_s3                     123  6.0  645.342  657.555  821.968  830.440
 qmmm_elec_with_gaussian:spline      41  6.0    0.000    0.000  699.773  707.562
 pw_prolongate_s3                   123  7.0  542.750  556.228  699.773  707.561
 mp_alltoall_z22v                 16124 17.5  655.435  702.863  655.435  702.863
 x_to_yz                           8570 16.9  324.587  326.729  675.972  692.316
 sum_up_and_integrate               934 10.8    8.848    8.954  675.894  676.219
 integrate_v_rspace                 934 11.8   11.511  100.459  667.045  667.358
 potential_pw2rs                    934 12.8    0.307    0.369  564.923  565.255
 yz_to_x                           7554 16.0  173.532  183.195  477.583  504.938
 rs_pw_transfer                    7718 12.2    0.140    0.190  442.996  457.159
 pw_scatter_p                      8570 15.9  294.277  299.685  294.277  299.685
 pw_gather_p                       7554 15.0  223.282  232.591  223.282  232.591
 pw_derive                         5727 13.2  206.402  211.403  206.402  211.403
 rs_pw_transfer_RS2PW_150           975 11.9   83.634  101.025  183.599  204.486
 pw_axpy                          15754  9.4  186.452  192.181  186.452  192.181
 mp_waitany                       87604 14.0  150.483  192.008  150.483  192.008
 init_scf_loop                       45  6.9    0.001    0.001  183.664  183.668
 qs_ks_update_qs_env_forces          41  5.0    0.000    0.000  173.763  173.779
 rs_pw_transfer_PW2RS_150           975 14.6  108.394  120.645  165.963  173.594
 pw_zero                          14833  7.6  142.751  148.003  142.751  148.003
 pw_copy                          11094 12.9  137.309  140.810  137.309  140.810
 -------------------------------------------------------------------------------

 The number of warnings for this run is : 1
 
 -------------------------------------------------------------------------------
  **** **** ******  **  PROGRAM ENDED AT                 2019-03-15 18:05:33.325
 ***** ** ***  *** **   PROGRAM RAN ON                                  nid04002
 **    ****   ******    PROGRAM RAN BY                                  fionabio
 ***** **    ** ** **   PROGRAM PROCESS ID                                 13492
  **** **  *******  **  PROGRAM STOPPED IN /fs3/d118/d118/fionabio/BioExcel2/cp2
                                           k_benchmarks/QMMM/QM/2_nodes/test-4
Experiment data file written:
/fs3/d118/d118/fionabio/BioExcel2/cp2k_benchmarks/QMMM/QM/2_nodes/test-4/cp2k.psmp+samp+13492-4002s.xf
Application 33917385 resources: utime ~308425s, stime ~12472s, Rss ~2253996, inblocks ~4682594, outblocks ~1864337
