#     Step Nr.          Time[fs]        Kin.[a.u.]          Temp[K]            Pot.[a.u.]        Cons Qty[a.u.]        UsedTime[s]
         0            0.000000        43.984410325       299.396680004      -253.053219647      -209.068337467         0.000000000
         1            1.000000        43.870291344       298.619885591      -252.908036767      -209.034371587       289.565816137
         2            2.000000        43.981905927       299.379632863      -253.047482489      -209.059276819        93.628314538
         3            3.000000        44.101811215       300.195813980      -253.178573118      -209.067487502        86.306881124
         4            4.000000        44.145445314       300.492826129      -253.198568064      -209.040805048        82.006821260
         5            5.000000        44.295926255       301.517132098      -253.378752701      -209.067382042        92.865396257
