#     Step Nr.          Time[fs]        Kin.[a.u.]          Temp[K]            Pot.[a.u.]        Cons Qty[a.u.]        UsedTime[s]
         0            0.000000        40.175949793       299.249817787      -238.947395131      -198.770973482         0.000000000
         1            1.000000        40.154318256       299.088695678      -238.897069869      -198.739504727       136.565258549
         2            2.000000        40.154774924       299.092097165      -238.904509916      -198.743683858        53.615675776
         3            3.000000        40.194516944       299.388114867      -238.959112983      -198.755708773        54.256113289
         4            4.000000        40.216043503       299.548455039      -238.959291386      -198.731485299        53.370205024
         5            5.000000        40.387279102       300.823900230      -239.165101397      -198.763131814        54.448266571
