#     Step Nr.          Time[fs]        Kin.[a.u.]          Temp[K]            Pot.[a.u.]        Cons Qty[a.u.]        UsedTime[s]
         0            0.000000       422.425160122       298.806277594     -1576.543507508     -1154.117875531         0.000000000
         1            1.000000       422.191988418       298.641341470     -1576.246637116     -1154.045129750       504.020203814
         2            2.000000       422.631625758       298.952322939     -1576.736362568     -1154.085969797       194.364850369
         3            3.000000       423.233166677       299.377828377     -1577.436929188     -1154.175461662       191.643788918
         4            4.000000       423.043065593       299.243358647     -1577.193541463     -1154.112265390       191.624821934
         5            5.000000       422.594093644       298.925774257     -1576.733582667     -1154.091030483       194.198836071
