#     Step Nr.          Time[fs]        Kin.[a.u.]          Temp[K]            Pot.[a.u.]        Cons Qty[a.u.]        UsedTime[s]
         0            0.000000        43.984410325       299.396680004      -253.053219646      -209.068337466         0.000000000
         1            1.000000        43.870291344       298.619885591      -252.908036766      -209.034371586       163.564455193
         2            2.000000        43.981905927       299.379632863      -253.047482488      -209.059276818        56.066232435
         3            3.000000        44.101811215       300.195813980      -253.178573117      -209.067487501        53.440233569
         4            4.000000        44.145445314       300.492826129      -253.198568064      -209.040805047        52.241915860
         5            5.000000        44.295926255       301.517132098      -253.378752700      -209.067382041        56.928208020
